
  ___ ___ ___ _ _ _  
 |   |   |_  | | | | 
 | | | | | . | | | | 
 |__ |  _|___|_____|  25.1.0
 |___|_|             

User:   denniswayo@Delas-MacBook-Pro.local
Date:   Mon Dec 15 14:45:17 2025
Arch:   x86_64
Pid:    37091
CWD:    /Users/denniswayo/gpaw-DFT/emitter2chip
Python: 3.9.22
gpaw:   /Users/denniswayo/miniforge-x86_64/envs/gpaw-tddft-legacy/lib/python3.9/site-packages/gpaw
_gpaw:  /Users/denniswayo/miniforge-x86_64/envs/gpaw-tddft-legacy/lib/python3.9/site-packages/
        _gpaw.cpython-39-darwin.so
ase:    /Users/denniswayo/miniforge-x86_64/envs/gpaw-tddft-legacy/lib/python3.9/site-packages/ase (version 3.25.0)
numpy:  /Users/denniswayo/miniforge-x86_64/envs/gpaw-tddft-legacy/lib/python3.9/site-packages/numpy (version 1.26.4)
scipy:  /Users/denniswayo/miniforge-x86_64/envs/gpaw-tddft-legacy/lib/python3.9/site-packages/scipy (version 1.13.1)
libxc:  5.1.7
units:  Angstrom and eV
cores: 1
OpenMP: False
OMP_NUM_THREADS: 1

Input parameters:
  basis: dzp
  kpts: [1 1 1]
  mode: lcao
  occupations: {fixmagmom: False,
                name: fermi-dirac,
                width: 0.05}
  spinpol: False
  symmetry: off
  xc: PBE

System changes: positions, numbers, cell, pbc, initial_charges, initial_magmoms 

Initialize ...

species:
  C:
    name: Carbon
    id: 4aa54d4b901d75f77cc0ea3eec22967b
    Z: 6.0
    valence: 4
    core: 2
    charge: 0.0
    file: /Users/denniswayo/miniforge-x86_64/envs/gpaw-tddft-legacy/lib/python3.9/site-packages/gpaw_data/setups/gpaw-setups-0.9.20000/C.PBE.gz
    compensation charges: {type: gauss,
                           rc: 0.20,
                           lmax: 2}
    cutoffs: {filter: 1.14,
              core: 1.14}
    projectors:
      #              energy  rcut
      - 2s(2.00)   -13.751   0.635
      - 2p(2.00)    -5.284   0.635
      -  s          13.461   0.635
      -  p          21.927   0.635
      -  d           0.000   0.635
  
    # LCAO basis set for C:
    #   Name: dzp
    #   File: /Users/denniswayo/miniforge-x86_64/envs/gpaw-tddft-legacy/lib/python3.9/site-packages/gpaw_data/setups/gpaw-setups-0.9.20000/C.dzp.basis.gz
    #   Number of radial functions: 5
    #   Number of spherical harmonics: 13
    #     l=0, rc=5.5469 Bohr: 2s-sz confined orbital
    #     l=1, rc=6.6719 Bohr: 2p-sz confined orbital
    #     l=0, rc=3.0312 Bohr: 2s-dz split-valence wave
    #     l=1, rc=3.7500 Bohr: 2p-dz split-valence wave
    #     l=2, rc=6.6719 Bohr: d-type Gaussian polarization
    #   Number of RI-basis functions 0

  N:
    name: Nitrogen
    id: f7500608b86eaa90eef8b1d9a670dc53
    Z: 7.0
    valence: 5
    core: 2
    charge: 0.0
    file: /Users/denniswayo/miniforge-x86_64/envs/gpaw-tddft-legacy/lib/python3.9/site-packages/gpaw_data/setups/gpaw-setups-0.9.20000/N.PBE.gz
    compensation charges: {type: gauss,
                           rc: 0.18,
                           lmax: 2}
    cutoffs: {filter: 1.11,
              core: 0.96}
    projectors:
      #              energy  rcut
      - 2s(2.00)   -18.583   0.603
      - 2p(3.00)    -7.089   0.529
      -  s           8.629   0.603
      -  p          20.123   0.529
      -  d           0.000   0.577
  
    # LCAO basis set for N:
    #   Name: dzp
    #   File: /Users/denniswayo/miniforge-x86_64/envs/gpaw-tddft-legacy/lib/python3.9/site-packages/gpaw_data/setups/gpaw-setups-0.9.20000/N.dzp.basis.gz
    #   Number of radial functions: 5
    #   Number of spherical harmonics: 13
    #     l=0, rc=4.8594 Bohr: 2s-sz confined orbital
    #     l=1, rc=6.0625 Bohr: 2p-sz confined orbital
    #     l=0, rc=2.6094 Bohr: 2s-dz split-valence wave
    #     l=1, rc=3.2656 Bohr: 2p-dz split-valence wave
    #     l=2, rc=6.0625 Bohr: d-type Gaussian polarization
    #   Number of RI-basis functions 0

  B:
    name: Boron
    id: 6e91439235a05fd7549e31636e8f777c
    Z: 5.0
    valence: 3
    core: 2
    charge: 0.0
    file: /Users/denniswayo/miniforge-x86_64/envs/gpaw-tddft-legacy/lib/python3.9/site-packages/gpaw_data/setups/gpaw-setups-0.9.20000/B.PBE.gz
    compensation charges: {type: gauss,
                           rc: 0.20,
                           lmax: 2}
    cutoffs: {filter: 1.14,
              core: 1.38}
    projectors:
      #              energy  rcut
      - 2s(2.00)    -9.443   0.635
      - 2p(1.00)    -3.606   0.635
      -  s          17.768   0.635
      -  p          23.605   0.635
      -  d           0.000   0.635
  
    # LCAO basis set for B:
    #   Name: dzp
    #   File: /Users/denniswayo/miniforge-x86_64/envs/gpaw-tddft-legacy/lib/python3.9/site-packages/gpaw_data/setups/gpaw-setups-0.9.20000/B.dzp.basis.gz
    #   Number of radial functions: 5
    #   Number of spherical harmonics: 13
    #     l=0, rc=6.6719 Bohr: 2s-sz confined orbital
    #     l=1, rc=8.2188 Bohr: 2p-sz confined orbital
    #     l=0, rc=3.7500 Bohr: 2s-dz split-valence wave
    #     l=1, rc=4.6094 Bohr: 2p-dz split-valence wave
    #     l=2, rc=8.2188 Bohr: d-type Gaussian polarization
    #   Number of RI-basis functions 0

Reference energy: -54138.415335  # eV

Spin-paired calculation

Convergence criteria:
 Maximum [total energy] change in last 3 cyles: 0.0005 eV / valence electron
 Maximum integral of absolute [dens]ity change: 0.0001 electrons / valence electron
 Maximum integral of absolute [eigenst]ate change: 4e-08 eV^2 / valence electron
 Maximum number of scf [iter]ations: 333
 (Square brackets indicate name in SCF output, whereas a 'c' in
 the SCF output indicates the quantity has converged.)

Symmetries present (total): 1

  ( 1  0  0)
  ( 0  1  0)
  ( 0  0  1)

1 k-point (Gamma)
1 k-point in the irreducible part of the Brillouin zone
       k-points in crystal coordinates                weights
   0:     0.00000000    0.00000000    0.00000000          1/1

Wave functions: LCAO
  Diagonalizer: Serial LAPACK
  Atomic Correction: dense with blas
  Data-type: float
 

Occupation numbers: Fermi-Dirac:
  width: 0.0500  # eV
 

Eigensolver
   LCAO using direct dense diagonalizer 

Densities:
  Coarse grid: 56*56*200 grid
  Fine grid: 112*112*400 grid
  Total Charge: 0.000000 

Density mixing:
  Method: separate
  Backend: pulay
  Linear mixing parameter: 0.05
  old densities: 5
  Damping of long wavelength oscillations: 50 

Hamiltonian:
  XC and Coulomb potentials evaluated on a 112*112*400 grid
  Using the PBE Exchange-Correlation functional
  Interpolation: tri-quintic (5. degree polynomial)
  Poisson solver: FastPoissonSolver using
    Stencil: 8*3+1=25 point O(h^6) finite-difference Laplacian
    FFT axes: [0, 1, 2]
    FST axes: []
 

XC parameters: PBE with 2 nearest neighbor stencil

Memory estimate:
  Process memory now: 1932.24 MiB
  Calculator: 385.05 MiB
    Density: 197.95 MiB
      Arrays: 124.41 MiB
      Localized functions: 25.68 MiB
      Mixer: 47.85 MiB
    Hamiltonian: 83.46 MiB
      Arrays: 81.35 MiB
      XC: 0.00 MiB
      Poisson: 0.00 MiB
      vbar: 2.11 MiB
    Wavefunctions: 103.64 MiB
      C [qnM]: 0.62 MiB
      S, T [2 x qmm]: 6.45 MiB
      P [aqMi]: 0.40 MiB
      BasisFunctions: 96.17 MiB
      Eigensolver: 0.00 MiB

Total number of cores used: 1

Number of atoms: 50
Number of atomic orbitals: 650
Number of bands in calculation: 125
Number of valence electrons: 201
Bands to converge: occupied

... initialized

Initializing position-dependent things.

Density initialized from atomic densities
                                                            
                                                            
                                                            
                                                            
              N     N     N     N     N                     
             B N   B  N  B  N  B  N  B  N                   
              B      B     B     B     B                    
                BN    BN     B     BN    BN                 
                   N     N     N     N      N               
                  B  N  B  N  B  N  B  N   B N              
                    C     B     B     B     B               
                                                            
                                                            
                                                            
                                                            

Positions:
   0 C      0.000000    0.000000   20.000000    ( 0.0000,  0.0000,  0.0000)
   1 N     -0.000000    1.443376   20.000000    ( 0.0000,  0.0000,  0.0000)
   2 B     -1.250000    2.165064   20.000000    ( 0.0000,  0.0000,  0.0000)
   3 N     -1.250000    3.608439   20.000000    ( 0.0000,  0.0000,  0.0000)
   4 B     -2.500000    4.330127   20.000000    ( 0.0000,  0.0000,  0.0000)
   5 N     -2.500000    5.773503   20.000000    ( 0.0000,  0.0000,  0.0000)
   6 B     -3.750000    6.495191   20.000000    ( 0.0000,  0.0000,  0.0000)
   7 N     -3.750000    7.938566   20.000000    ( 0.0000,  0.0000,  0.0000)
   8 B     -5.000000    8.660254   20.000000    ( 0.0000,  0.0000,  0.0000)
   9 N     -5.000000   10.103630   20.000000    ( 0.0000,  0.0000,  0.0000)
  10 B      2.500000    0.000000   20.000000    ( 0.0000,  0.0000,  0.0000)
  11 N      2.500000    1.443376   20.000000    ( 0.0000,  0.0000,  0.0000)
  12 B      1.250000    2.165064   20.000000    ( 0.0000,  0.0000,  0.0000)
  13 N      1.250000    3.608439   20.000000    ( 0.0000,  0.0000,  0.0000)
  14 B     -0.000000    4.330127   20.000000    ( 0.0000,  0.0000,  0.0000)
  15 N     -0.000000    5.773503   20.000000    ( 0.0000,  0.0000,  0.0000)
  16 B     -1.250000    6.495191   20.000000    ( 0.0000,  0.0000,  0.0000)
  17 N     -1.250000    7.938566   20.000000    ( 0.0000,  0.0000,  0.0000)
  18 B     -2.500000    8.660254   20.000000    ( 0.0000,  0.0000,  0.0000)
  19 N     -2.500000   10.103630   20.000000    ( 0.0000,  0.0000,  0.0000)
  20 B      5.000000    0.000000   20.000000    ( 0.0000,  0.0000,  0.0000)
  21 N      5.000000    1.443376   20.000000    ( 0.0000,  0.0000,  0.0000)
  22 B      3.750000    2.165064   20.000000    ( 0.0000,  0.0000,  0.0000)
  23 N      3.750000    3.608439   20.000000    ( 0.0000,  0.0000,  0.0000)
  24 B      2.500000    4.330127   20.000000    ( 0.0000,  0.0000,  0.0000)
  25 N      2.500000    5.773503   20.000000    ( 0.0000,  0.0000,  0.0000)
  26 B      1.250000    6.495191   20.000000    ( 0.0000,  0.0000,  0.0000)
  27 N      1.250000    7.938566   20.000000    ( 0.0000,  0.0000,  0.0000)
  28 B     -0.000000    8.660254   20.000000    ( 0.0000,  0.0000,  0.0000)
  29 N     -0.000000   10.103630   20.000000    ( 0.0000,  0.0000,  0.0000)
  30 B      7.500000    0.000000   20.000000    ( 0.0000,  0.0000,  0.0000)
  31 N      7.500000    1.443376   20.000000    ( 0.0000,  0.0000,  0.0000)
  32 B      6.250000    2.165064   20.000000    ( 0.0000,  0.0000,  0.0000)
  33 N      6.250000    3.608439   20.000000    ( 0.0000,  0.0000,  0.0000)
  34 B      5.000000    4.330127   20.000000    ( 0.0000,  0.0000,  0.0000)
  35 N      5.000000    5.773503   20.000000    ( 0.0000,  0.0000,  0.0000)
  36 B      3.750000    6.495191   20.000000    ( 0.0000,  0.0000,  0.0000)
  37 N      3.750000    7.938566   20.000000    ( 0.0000,  0.0000,  0.0000)
  38 B      2.500000    8.660254   20.000000    ( 0.0000,  0.0000,  0.0000)
  39 N      2.500000   10.103630   20.000000    ( 0.0000,  0.0000,  0.0000)
  40 B     10.000000    0.000000   20.000000    ( 0.0000,  0.0000,  0.0000)
  41 N     10.000000    1.443376   20.000000    ( 0.0000,  0.0000,  0.0000)
  42 B      8.750000    2.165064   20.000000    ( 0.0000,  0.0000,  0.0000)
  43 N      8.750000    3.608439   20.000000    ( 0.0000,  0.0000,  0.0000)
  44 B      7.500000    4.330127   20.000000    ( 0.0000,  0.0000,  0.0000)
  45 N      7.500000    5.773503   20.000000    ( 0.0000,  0.0000,  0.0000)
  46 B      6.250000    6.495191   20.000000    ( 0.0000,  0.0000,  0.0000)
  47 N      6.250000    7.938566   20.000000    ( 0.0000,  0.0000,  0.0000)
  48 B      5.000000    8.660254   20.000000    ( 0.0000,  0.0000,  0.0000)
  49 N      5.000000   10.103630   20.000000    ( 0.0000,  0.0000,  0.0000)

Unit cell:
           periodic     x           y           z      points  spacing
  1. axis:    yes   12.500000    0.000000    0.000000    56     0.1933
  2. axis:    yes   -6.250000   10.825318    0.000000    56     0.1933
  3. axis:    yes    0.000000    0.000000   40.000000   200     0.2000

  Lengths:  12.500000  12.500000  40.000000
  Angles:   90.000000  90.000000 120.000000

Effective grid spacing dv^(1/3) = 0.2051

     iter     time        total  log10-change:
                         energy   eigst   dens
iter:   1 14:45:26  -438.786109        c
iter:   2 14:45:32  -434.232795        c -0.77
iter:   3 14:45:37  -418.962432        c -0.81
iter:   4 14:45:42  -418.395048        c -1.19
iter:   5 14:45:47  -418.204062        c -1.52
iter:   6 14:45:52  -418.062849        c -1.98
iter:   7 14:45:58  -418.076304        c -2.21
iter:   8 14:46:04  -418.045230c       c -2.29
iter:   9 14:46:10  -418.045050c       c -3.27
iter:  10 14:46:17  -418.044735c       c -3.33
iter:  11 14:46:23  -418.044719c       c -3.61
iter:  12 14:46:28  -418.044686c       c -3.66
iter:  13 14:46:35  -418.044686c       c -4.16c

Converged after 13 iterations.

Dipole moment: (-25.351669, -6.132137, 0.000000) |e|*Ang

Energy contributions relative to reference atoms: (reference = -54138.415335)

Kinetic:       +384.193820
Potential:     -390.014860
External:        +0.000000
XC:            -428.442972
Entropy (-ST):   -0.069315
Local:          +16.253983
SIC:             +0.000000
--------------------------
Free energy:   -418.079343
Extrapolated:  -418.044686

 Band  Eigenvalues  Occupancy
    0    -23.49669    2.00000
    1    -22.52797    2.00000
    2    -22.12743    2.00000
    3    -22.12707    2.00000
    4    -21.98998    2.00000
    5    -21.98996    2.00000
    6    -21.96267    2.00000
    7    -20.99744    2.00000
    8    -20.94946    2.00000
    9    -20.94873    2.00000
   10    -20.67985    2.00000
   11    -20.67623    2.00000
   12    -20.67622    2.00000
   13    -20.34350    2.00000
   14    -20.34325    2.00000
   15    -20.28719    2.00000
   16    -20.19292    2.00000
   17    -20.17293    2.00000
   18    -20.17284    2.00000
   19    -19.53889    2.00000
   20    -19.53869    2.00000
   21    -19.35143    2.00000
   22    -19.34599    2.00000
   23    -19.34594    2.00000
   24    -19.32421    2.00000
   25    -15.11505    2.00000
   26    -13.80889    2.00000
   27    -13.80838    2.00000
   28    -13.55879    2.00000
   29    -13.51132    2.00000
   30    -13.51110    2.00000
   31    -13.30373    2.00000
   32    -13.21533    2.00000
   33    -13.21463    2.00000
   34    -13.19090    2.00000
   35    -13.19027    2.00000
   36    -13.12701    2.00000
   37    -11.90587    2.00000
   38    -11.82828    2.00000
   39    -11.82821    2.00000
   40    -11.63365    2.00000
   41    -11.63274    2.00000
   42    -11.58858    2.00000
   43    -11.19831    2.00000
   44    -11.18686    2.00000
   45    -11.18672    2.00000
   46    -11.15024    2.00000
   47    -10.99967    2.00000
   48    -10.99933    2.00000
   49    -10.38018    2.00000
   50    -10.10731    2.00000
   51    -10.10688    2.00000
   52     -9.95580    2.00000
   53     -9.89233    2.00000
   54     -9.83153    2.00000
   55     -9.83143    2.00000
   56     -9.61370    2.00000
   57     -9.34550    2.00000
   58     -9.34479    2.00000
   59     -9.28355    2.00000
   60     -9.28349    2.00000
   61     -9.21767    2.00000
   62     -9.21767    2.00000
   63     -9.19367    2.00000
   64     -9.18944    2.00000
   65     -9.12574    2.00000
   66     -9.12498    2.00000
   67     -9.12359    2.00000
   68     -9.04596    2.00000
   69     -9.04566    2.00000
   70     -9.03501    2.00000
   71     -8.99401    2.00000
   72     -8.98965    2.00000
   73     -8.98960    2.00000
   74     -7.78156    2.00000
   75     -7.78076    2.00000
   76     -7.62950    2.00000
   77     -7.62938    2.00000
   78     -7.60359    2.00000
   79     -7.60341    2.00000
   80     -7.57148    2.00000
   81     -7.47017    2.00000
   82     -7.47015    2.00000
   83     -7.38015    2.00000
   84     -7.36982    2.00000
   85     -7.36981    2.00000
   86     -6.78681    2.00000
   87     -6.75300    2.00000
   88     -6.75299    2.00000
   89     -6.64232    2.00000
   90     -6.64095    2.00000
   91     -6.64085    2.00000
   92     -6.45276    2.00000
   93     -6.45056    2.00000
   94     -5.49297    2.00000
   95     -5.49296    2.00000
   96     -5.38480    2.00000
   97     -5.34511    2.00000
   98     -5.34508    2.00000
   99     -5.33407    2.00000
  100     -1.37546    1.00000
  101     -0.18915    0.00000
  102     -0.13699    0.00000
  103     -0.13697    0.00000
  104     -0.11041    0.00000
  105     -0.11039    0.00000
  106      0.60964    0.00000
  107      0.93328    0.00000
  108      0.93331    0.00000
  109      0.96029    0.00000
  110      0.96031    0.00000
  111      1.00040    0.00000
  112      1.97785    0.00000
  113      2.24178    0.00000
  114      2.24180    0.00000
  115      2.27456    0.00000
  116      2.28984    0.00000
  117      2.28987    0.00000
  118      3.04811    0.00000
  119      3.39342    0.00000
  120      3.56113    0.00000
  121      3.56266    0.00000
  122      3.60852    0.00000
  123      3.63887    0.00000
  124      3.64038    0.00000

Fermi level: -1.37546

Gap: 3.959 eV
Transition (v -> c):
  (s=0, k=0, n=99, [0.00, 0.00, 0.00]) -> (s=0, k=0, n=100, [0.00, 0.00, 0.00])
No difference between direct/indirect transitions

Forces in eV/Ang:
  0 C     0.00672   -0.00386    0.00000
  1 N    -0.05981   -2.16562    0.00000
  2 B    -0.22740    0.02097    0.00000
  3 N     0.09335   -0.26219    0.00000
  4 B    -0.06853   -0.01820    0.00000
  5 N    -0.18294   -0.13436    0.00000
  6 B    -0.03931   -0.06981    0.00000
  7 N    -0.14778    0.22933    0.00000
  8 B    -0.08591   -0.22604    0.00000
  9 N    -1.92065    1.10868    0.00000
 10 B     0.15301    0.18773    0.00000
 11 N    -0.00331    0.02193    0.00000
 12 B     0.24944    0.02256    0.00000
 13 N    -0.18452   -0.24580    0.00000
 14 B     0.01114    0.10794    0.00000
 15 N    -0.03098   -0.11762    0.00000
 16 B     0.05935    0.02123    0.00000
 17 N    -0.09242    0.05310    0.00000
 18 B     0.10952   -0.06300    0.00000
 19 N    -0.27273    0.01294    0.00000
 20 B     0.04101    0.06932    0.00000
 21 N     0.07659    0.07818    0.00000
 22 B    -0.06417   -0.04854    0.00000
 23 N     0.08551    0.00127    0.00000
 24 B     0.09087   -0.01723    0.00000
 25 N     0.14831   -0.08588    0.00000
 26 B    -0.03662    0.02138    0.00000
 27 N     0.08616    0.08525    0.00000
 28 B     0.01149   -0.06165    0.00000
 29 N     0.02467    0.22521    0.00000
 30 B    -0.01830    0.06882    0.00000
 31 N    -0.01878    0.08230    0.00000
 32 B     0.01115   -0.04175    0.00000
 33 N     0.03299   -0.01932    0.00000
 34 B    -0.02062    0.01215    0.00000
 35 N     0.04143   -0.07508    0.00000
 36 B     0.06056   -0.06973    0.00000
 37 N     0.12040    0.28234    0.00000
 38 B    -0.08772   -0.06328    0.00000
 39 N     0.27356    0.04987    0.00000
 40 B    -0.13171    0.18681    0.00000
 41 N    -0.04858    0.02780    0.00000
 42 B     0.08640   -0.04965    0.00000
 43 N    -0.08090   -0.02527    0.00000
 44 B     0.04195    0.01158    0.00000
 45 N    -0.02965   -0.10582    0.00000
 46 B     0.01015    0.08018    0.00000
 47 N    -0.02087   -0.00846    0.00000
 48 B     0.10540   -0.22702    0.00000
 49 N     1.84554    1.13438    0.00000

System changes: positions 

Initializing position-dependent things.

Density initialized from wave functions
                                                            
                                                            
                                                            
                                                            
              N     N     N     N      N                    
             B N   B  N  B  N  B  N   B N                   
               B     B     B     B     B                    
                BN    BN     B     BN    BN                 
                   N     N     N     N      N               
                  B  N  B  N  B  N  B  N   B N              
                    C     B     B     B     B               
                                                            
                                                            
                                                            
                                                            

Positions:
   0 C      0.000096   -0.000055   20.000000    ( 0.0000,  0.0000,  0.0000)
   1 N     -0.000854    1.412438   20.000000    ( 0.0000,  0.0000,  0.0000)
   2 B     -1.253249    2.165363   20.000000    ( 0.0000,  0.0000,  0.0000)
   3 N     -1.248666    3.604694   20.000000    ( 0.0000,  0.0000,  0.0000)
   4 B     -2.500979    4.329867   20.000000    ( 0.0000,  0.0000,  0.0000)
   5 N     -2.502613    5.771583   20.000000    ( 0.0000,  0.0000,  0.0000)
   6 B     -3.750562    6.494193   20.000000    ( 0.0000,  0.0000,  0.0000)
   7 N     -3.752111    7.941842   20.000000    ( 0.0000,  0.0000,  0.0000)
   8 B     -5.001227    8.657025   20.000000    ( 0.0000,  0.0000,  0.0000)
   9 N     -5.027438   10.119468   20.000000    ( 0.0000,  0.0000,  0.0000)
  10 B      2.502186    0.002682   20.000000    ( 0.0000,  0.0000,  0.0000)
  11 N      2.499953    1.443689   20.000000    ( 0.0000,  0.0000,  0.0000)
  12 B      1.253563    2.165386   20.000000    ( 0.0000,  0.0000,  0.0000)
  13 N      1.247364    3.604928   20.000000    ( 0.0000,  0.0000,  0.0000)
  14 B      0.000159    4.331669   20.000000    ( 0.0000,  0.0000,  0.0000)
  15 N     -0.000443    5.771822   20.000000    ( 0.0000,  0.0000,  0.0000)
  16 B     -1.249152    6.495494   20.000000    ( 0.0000,  0.0000,  0.0000)
  17 N     -1.251320    7.939325   20.000000    ( 0.0000,  0.0000,  0.0000)
  18 B     -2.498435    8.659354   20.000000    ( 0.0000,  0.0000,  0.0000)
  19 N     -2.503896   10.103815   20.000000    ( 0.0000,  0.0000,  0.0000)
  20 B      5.000586    0.000990   20.000000    ( 0.0000,  0.0000,  0.0000)
  21 N      5.001094    1.444493   20.000000    ( 0.0000,  0.0000,  0.0000)
  22 B      3.749083    2.164370   20.000000    ( 0.0000,  0.0000,  0.0000)
  23 N      3.751222    3.608457   20.000000    ( 0.0000,  0.0000,  0.0000)
  24 B      2.501298    4.329881   20.000000    ( 0.0000,  0.0000,  0.0000)
  25 N      2.502119    5.772276   20.000000    ( 0.0000,  0.0000,  0.0000)
  26 B      1.249477    6.495496   20.000000    ( 0.0000,  0.0000,  0.0000)
  27 N      1.251231    7.939784   20.000000    ( 0.0000,  0.0000,  0.0000)
  28 B      0.000164    8.659373   20.000000    ( 0.0000,  0.0000,  0.0000)
  29 N      0.000352   10.106847   20.000000    ( 0.0000,  0.0000,  0.0000)
  30 B      7.499739    0.000983   20.000000    ( 0.0000,  0.0000,  0.0000)
  31 N      7.499732    1.444551   20.000000    ( 0.0000,  0.0000,  0.0000)
  32 B      6.250159    2.164467   20.000000    ( 0.0000,  0.0000,  0.0000)
  33 N      6.250471    3.608163   20.000000    ( 0.0000,  0.0000,  0.0000)
  34 B      4.999705    4.330301   20.000000    ( 0.0000,  0.0000,  0.0000)
  35 N      5.000592    5.772430   20.000000    ( 0.0000,  0.0000,  0.0000)
  36 B      3.750865    6.494194   20.000000    ( 0.0000,  0.0000,  0.0000)
  37 N      3.751720    7.942600   20.000000    ( 0.0000,  0.0000,  0.0000)
  38 B      2.498747    8.659350   20.000000    ( 0.0000,  0.0000,  0.0000)
  39 N      2.503908   10.104342   20.000000    ( 0.0000,  0.0000,  0.0000)
  40 B      9.998118    0.002669   20.000000    ( 0.0000,  0.0000,  0.0000)
  41 N      9.999306    1.443773   20.000000    ( 0.0000,  0.0000,  0.0000)
  42 B      8.751234    2.164354   20.000000    ( 0.0000,  0.0000,  0.0000)
  43 N      8.748844    3.608078   20.000000    ( 0.0000,  0.0000,  0.0000)
  44 B      7.500599    4.330292   20.000000    ( 0.0000,  0.0000,  0.0000)
  45 N      7.499576    5.771991   20.000000    ( 0.0000,  0.0000,  0.0000)
  46 B      6.250145    6.496336   20.000000    ( 0.0000,  0.0000,  0.0000)
  47 N      6.249702    7.938445   20.000000    ( 0.0000,  0.0000,  0.0000)
  48 B      5.001506    8.657011   20.000000    ( 0.0000,  0.0000,  0.0000)
  49 N      5.026365   10.119835   20.000000    ( 0.0000,  0.0000,  0.0000)

Unit cell:
           periodic     x           y           z      points  spacing
  1. axis:    yes   12.500000    0.000000    0.000000    56     0.1933
  2. axis:    yes   -6.250000   10.825318    0.000000    56     0.1933
  3. axis:    yes    0.000000    0.000000   40.000000   200     0.2000

  Lengths:  12.500000  12.500000  40.000000
  Angles:   90.000000  90.000000 120.000000

Effective grid spacing dv^(1/3) = 0.2051

     iter     time        total  log10-change:
                         energy   eigst   dens
iter:   1 14:46:53  -418.206533        c
iter:   2 14:46:58  -418.195543        c -2.65
iter:   3 14:47:02  -418.169817c       c -2.71
iter:   4 14:47:07  -418.169034c       c -3.19
iter:   5 14:47:12  -418.169024c       c -3.40
iter:   6 14:47:18  -418.168910c       c -3.48
iter:   7 14:47:23  -418.168913c       c -4.02c

Converged after 7 iterations.

Dipole moment: (-25.200656, -6.112153, -0.000000) |e|*Ang

Energy contributions relative to reference atoms: (reference = -54138.415335)

Kinetic:       +383.994117
Potential:     -389.953903
External:        +0.000000
XC:            -428.520469
Entropy (-ST):   -0.069315
Local:          +16.345999
SIC:             +0.000000
--------------------------
Free energy:   -418.203570
Extrapolated:  -418.168913

 Band  Eigenvalues  Occupancy
    0    -23.65786    2.00000
    1    -22.55505    2.00000
    2    -22.10713    2.00000
    3    -22.10642    2.00000
    4    -21.99409    2.00000
    5    -21.99294    2.00000
    6    -21.96820    2.00000
    7    -21.03907    2.00000
    8    -20.93320    2.00000
    9    -20.93177    2.00000
   10    -20.68520    2.00000
   11    -20.68478    2.00000
   12    -20.67759    2.00000
   13    -20.34456    2.00000
   14    -20.34264    2.00000
   15    -20.30967    2.00000
   16    -20.18660    2.00000
   17    -20.18596    2.00000
   18    -20.18400    2.00000
   19    -19.55036    2.00000
   20    -19.55022    2.00000
   21    -19.36671    2.00000
   22    -19.36596    2.00000
   23    -19.34659    2.00000
   24    -19.31765    2.00000
   25    -15.10429    2.00000
   26    -13.80499    2.00000
   27    -13.80369    2.00000
   28    -13.55707    2.00000
   29    -13.51145    2.00000
   30    -13.51034    2.00000
   31    -13.31532    2.00000
   32    -13.22213    2.00000
   33    -13.21959    2.00000
   34    -13.18478    2.00000
   35    -13.18367    2.00000
   36    -13.13058    2.00000
   37    -11.91684    2.00000
   38    -11.88634    2.00000
   39    -11.88573    2.00000
   40    -11.61380    2.00000
   41    -11.61379    2.00000
   42    -11.59305    2.00000
   43    -11.20060    2.00000
   44    -11.19780    2.00000
   45    -11.19656    2.00000
   46    -11.04879    2.00000
   47    -11.01223    2.00000
   48    -11.01163    2.00000
   49    -10.40435    2.00000
   50    -10.13065    2.00000
   51    -10.12915    2.00000
   52     -9.98243    2.00000
   53     -9.82573    2.00000
   54     -9.81785    2.00000
   55     -9.81749    2.00000
   56     -9.67182    2.00000
   57     -9.38406    2.00000
   58     -9.38137    2.00000
   59     -9.26662    2.00000
   60     -9.26557    2.00000
   61     -9.22059    2.00000
   62     -9.21994    2.00000
   63     -9.20290    2.00000
   64     -9.19895    2.00000
   65     -9.09152    2.00000
   66     -9.08230    2.00000
   67     -9.08215    2.00000
   68     -9.05395    2.00000
   69     -9.05202    2.00000
   70     -9.03510    2.00000
   71     -8.99664    2.00000
   72     -8.98040    2.00000
   73     -8.97931    2.00000
   74     -7.78898    2.00000
   75     -7.78424    2.00000
   76     -7.69249    2.00000
   77     -7.60879    2.00000
   78     -7.60742    2.00000
   79     -7.59238    2.00000
   80     -7.58114    2.00000
   81     -7.43106    2.00000
   82     -7.43073    2.00000
   83     -7.38021    2.00000
   84     -7.37998    2.00000
   85     -7.37825    2.00000
   86     -6.82067    2.00000
   87     -6.72856    2.00000
   88     -6.72845    2.00000
   89     -6.65010    2.00000
   90     -6.64833    2.00000
   91     -6.63748    2.00000
   92     -6.45187    2.00000
   93     -6.44727    2.00000
   94     -5.48365    2.00000
   95     -5.48336    2.00000
   96     -5.38640    2.00000
   97     -5.36277    2.00000
   98     -5.36252    2.00000
   99     -5.33307    2.00000
  100     -1.22966    1.00000
  101     -0.16786    0.00000
  102     -0.16431    0.00000
  103     -0.16079    0.00000
  104     -0.10414    0.00000
  105     -0.10180    0.00000
  106      0.65260    0.00000
  107      0.89484    0.00000
  108      0.89798    0.00000
  109      0.95883    0.00000
  110      0.96071    0.00000
  111      0.99427    0.00000
  112      1.99558    0.00000
  113      2.20145    0.00000
  114      2.20201    0.00000
  115      2.26428    0.00000
  116      2.30383    0.00000
  117      2.30491    0.00000
  118      3.21541    0.00000
  119      3.49071    0.00000
  120      3.54685    0.00000
  121      3.55131    0.00000
  122      3.60145    0.00000
  123      3.64256    0.00000
  124      3.64436    0.00000

Fermi level: -1.22966

Gap: 4.103 eV
Transition (v -> c):
  (s=0, k=0, n=99, [0.00, 0.00, 0.00]) -> (s=0, k=0, n=100, [0.00, 0.00, 0.00])
No difference between direct/indirect transitions

Forces in eV/Ang:
  0 C    -0.02364    0.01361    0.00000
  1 N     0.00766   -0.28556    0.00000
  2 B     0.24348   -0.43941    0.00000
  3 N     0.06502   -0.06270    0.00000
  4 B    -0.03811   -0.14128    0.00000
  5 N    -0.00526   -0.01593    0.00000
  6 B    -0.11239    0.01906    0.00000
  7 N    -0.01587    0.08933    0.00000
  8 B    -0.24378    0.45863    0.00000
  9 N    -0.28297    0.16343    0.00000
 10 B    -0.51911   -0.01830    0.00000
 11 N     0.18438    0.10720    0.00000
 12 B    -0.29869   -0.43858    0.00000
 13 N    -0.07645   -0.06063    0.00000
 14 B    -0.03210   -0.09606    0.00000
 15 N    -0.00055    0.02708    0.00000
 16 B    -0.06862   -0.04154    0.00000
 17 N     0.03273   -0.01884    0.00000
 18 B    -0.07010    0.04039    0.00000
 19 N    -0.08525   -0.03084    0.00000
 20 B    -0.07278    0.08769    0.00000
 21 N    -0.00264   -0.00688    0.00000
 22 B    -0.00278   -0.01521    0.00000
 23 N    -0.00331   -0.00613    0.00000
 24 B     0.01498   -0.12464    0.00000
 25 N     0.01297   -0.00744    0.00000
 26 B     0.03905   -0.02264    0.00000
 27 N    -0.02366   -0.01296    0.00000
 28 B     0.00159    0.08007    0.00000
 29 N     0.01121    0.01263    0.00000
 30 B     0.10322    0.10354    0.00000
 31 N     0.01298   -0.00812    0.00000
 32 B     0.02935    0.02929    0.00000
 33 N     0.00210   -0.00113    0.00000
 34 B     0.05222   -0.03023    0.00000
 35 N     0.00373    0.00607    0.00000
 36 B     0.11536    0.04921    0.00000
 37 N     0.01434    0.09665    0.00000
 38 B     0.06707    0.07570    0.00000
 39 N     0.08691   -0.02489    0.00000
 40 B     0.50219    0.00876    0.00000
 41 N    -0.17411    0.10058    0.00000
 42 B     0.01625   -0.00945    0.00000
 43 N     0.01361   -0.00704    0.00000
 44 B    -0.01074   -0.04017    0.00000
 45 N     0.00474    0.00586    0.00000
 46 B     0.01173    0.00991    0.00000
 47 N    -0.00060   -0.21313    0.00000
 48 B     0.23044    0.47785    0.00000
 49 N     0.25117    0.13622    0.00000

System changes: positions 

Initializing position-dependent things.

Density initialized from wave functions
                                                            
                                                            
                                                            
                                                            
              N     N     N     N      N                    
             B N   B  N  B  N  B  N   B N                   
               B     B     B     B     B                    
                BN    BN     B     BN    BN                 
                   N     N     N     N      N               
                  B  N  B  N  B  N  B  N   B N              
                    C     B     B     B     B               
                                                            
                                                            
                                                            
                                                            

Positions:
   0 C     -0.000266    0.000153   20.000000    ( 0.0000,  0.0000,  0.0000)
   1 N     -0.000873    1.402777   20.000000    ( 0.0000,  0.0000,  0.0000)
   2 B     -1.249895    2.158394   20.000000    ( 0.0000,  0.0000,  0.0000)
   3 N     -1.247408    3.603075   20.000000    ( 0.0000,  0.0000,  0.0000)
   4 B     -2.501749    4.327568   20.000000    ( 0.0000,  0.0000,  0.0000)
   5 N     -2.503128    5.771012   20.000000    ( 0.0000,  0.0000,  0.0000)
   6 B     -3.752449    6.494333   20.000000    ( 0.0000,  0.0000,  0.0000)
   7 N     -3.752713    7.943809   20.000000    ( 0.0000,  0.0000,  0.0000)
   8 B     -5.005323    8.663818   20.000000    ( 0.0000,  0.0000,  0.0000)
   9 N     -5.036481   10.124689   20.000000    ( 0.0000,  0.0000,  0.0000)
  10 B      2.494255    0.002832   20.000000    ( 0.0000,  0.0000,  0.0000)
  11 N      2.502890    1.445453   20.000000    ( 0.0000,  0.0000,  0.0000)
  12 B      1.249380    2.158434   20.000000    ( 0.0000,  0.0000,  0.0000)
  13 N      1.245708    3.603380   20.000000    ( 0.0000,  0.0000,  0.0000)
  14 B     -0.000327    4.330389   20.000000    ( 0.0000,  0.0000,  0.0000)
  15 N     -0.000524    5.771978   20.000000    ( 0.0000,  0.0000,  0.0000)
  16 B     -1.250108    6.494880   20.000000    ( 0.0000,  0.0000,  0.0000)
  17 N     -1.251015    7.939149   20.000000    ( 0.0000,  0.0000,  0.0000)
  18 B     -2.499297    8.659851   20.000000    ( 0.0000,  0.0000,  0.0000)
  19 N     -2.505900   10.103352   20.000000    ( 0.0000,  0.0000,  0.0000)
  20 B      4.999520    0.002554   20.000000    ( 0.0000,  0.0000,  0.0000)
  21 N      5.001232    1.444567   20.000000    ( 0.0000,  0.0000,  0.0000)
  22 B      3.748888    2.164013   20.000000    ( 0.0000,  0.0000,  0.0000)
  23 N      3.751370    3.608362   20.000000    ( 0.0000,  0.0000,  0.0000)
  24 B      2.501751    4.327850   20.000000    ( 0.0000,  0.0000,  0.0000)
  25 N      2.502675    5.771955   20.000000    ( 0.0000,  0.0000,  0.0000)
  26 B      1.250014    6.495185   20.000000    ( 0.0000,  0.0000,  0.0000)
  27 N      1.251056    7.939778   20.000000    ( 0.0000,  0.0000,  0.0000)
  28 B      0.000217    8.660507   20.000000    ( 0.0000,  0.0000,  0.0000)
  29 N      0.000590   10.107579   20.000000    ( 0.0000,  0.0000,  0.0000)
  30 B      7.501344    0.002799   20.000000    ( 0.0000,  0.0000,  0.0000)
  31 N      7.499895    1.444615   20.000000    ( 0.0000,  0.0000,  0.0000)
  32 B      6.250654    2.164837   20.000000    ( 0.0000,  0.0000,  0.0000)
  33 N      6.250583    3.608100   20.000000    ( 0.0000,  0.0000,  0.0000)
  34 B      5.000491    4.329846   20.000000    ( 0.0000,  0.0000,  0.0000)
  35 N      5.000749    5.772350   20.000000    ( 0.0000,  0.0000,  0.0000)
  36 B      3.752850    6.494816   20.000000    ( 0.0000,  0.0000,  0.0000)
  37 N      3.752233    7.944808   20.000000    ( 0.0000,  0.0000,  0.0000)
  38 B      2.499611    8.660410   20.000000    ( 0.0000,  0.0000,  0.0000)
  39 N      2.505940   10.104062   20.000000    ( 0.0000,  0.0000,  0.0000)
  40 B     10.005830    0.003249   20.000000    ( 0.0000,  0.0000,  0.0000)
  41 N      9.996411    1.445445   20.000000    ( 0.0000,  0.0000,  0.0000)
  42 B      8.751697    2.164086   20.000000    ( 0.0000,  0.0000,  0.0000)
  43 N      8.748871    3.607906   20.000000    ( 0.0000,  0.0000,  0.0000)
  44 B      7.500527    4.329678   20.000000    ( 0.0000,  0.0000,  0.0000)
  45 N      7.499582    5.771836   20.000000    ( 0.0000,  0.0000,  0.0000)
  46 B      6.250356    6.496683   20.000000    ( 0.0000,  0.0000,  0.0000)
  47 N      6.249643    7.935021   20.000000    ( 0.0000,  0.0000,  0.0000)
  48 B      5.005435    8.664109   20.000000    ( 0.0000,  0.0000,  0.0000)
  49 N      5.034723   10.124682   20.000000    ( 0.0000,  0.0000,  0.0000)

Unit cell:
           periodic     x           y           z      points  spacing
  1. axis:    yes   12.500000    0.000000    0.000000    56     0.1933
  2. axis:    yes   -6.250000   10.825318    0.000000    56     0.1933
  3. axis:    yes    0.000000    0.000000   40.000000   200     0.2000

  Lengths:  12.500000  12.500000  40.000000
  Angles:   90.000000  90.000000 120.000000

Effective grid spacing dv^(1/3) = 0.2051

     iter     time        total  log10-change:
                         energy   eigst   dens
iter:   1 14:47:39  -418.209255        c
iter:   2 14:47:44  -418.204096        c -2.82
iter:   3 14:47:48  -418.194364c       c -2.90
iter:   4 14:47:53  -418.194099c       c -3.32
iter:   5 14:47:58  -418.194089c       c -3.59
iter:   6 14:48:03  -418.194050c       c -3.77
iter:   7 14:48:08  -418.194050c       c -4.27c

Converged after 7 iterations.

Dipole moment: (-24.847622, -6.280155, -0.000000) |e|*Ang

Energy contributions relative to reference atoms: (reference = -54138.415335)

Kinetic:       +383.981731
Potential:     -389.931818
External:        +0.000000
XC:            -428.548242
Entropy (-ST):   -0.069315
Local:          +16.338937
SIC:             +0.000000
--------------------------
Free energy:   -418.228707
Extrapolated:  -418.194050

 Band  Eigenvalues  Occupancy
    0    -23.80243    2.00000
    1    -22.54973    2.00000
    2    -22.11640    2.00000
    3    -22.11620    2.00000
    4    -21.97944    2.00000
    5    -21.97919    2.00000
    6    -21.95611    2.00000
    7    -21.04568    2.00000
    8    -20.98186    2.00000
    9    -20.98101    2.00000
   10    -20.67912    2.00000
   11    -20.67907    2.00000
   12    -20.65204    2.00000
   13    -20.34323    2.00000
   14    -20.34236    2.00000
   15    -20.29842    2.00000
   16    -20.18124    2.00000
   17    -20.16960    2.00000
   18    -20.16873    2.00000
   19    -19.55798    2.00000
   20    -19.55742    2.00000
   21    -19.34491    2.00000
   22    -19.34076    2.00000
   23    -19.34046    2.00000
   24    -19.31178    2.00000
   25    -15.17547    2.00000
   26    -13.85688    2.00000
   27    -13.85677    2.00000
   28    -13.53297    2.00000
   29    -13.49910    2.00000
   30    -13.49883    2.00000
   31    -13.29407    2.00000
   32    -13.22036    2.00000
   33    -13.21995    2.00000
   34    -13.17994    2.00000
   35    -13.17943    2.00000
   36    -13.12293    2.00000
   37    -11.92038    2.00000
   38    -11.91916    2.00000
   39    -11.91756    2.00000
   40    -11.61631    2.00000
   41    -11.61604    2.00000
   42    -11.57310    2.00000
   43    -11.21211    2.00000
   44    -11.20174    2.00000
   45    -11.19988    2.00000
   46    -11.03935    2.00000
   47    -10.99689    2.00000
   48    -10.99594    2.00000
   49    -10.44601    2.00000
   50    -10.14604    2.00000
   51    -10.14474    2.00000
   52     -9.96743    2.00000
   53     -9.82656    2.00000
   54     -9.81134    2.00000
   55     -9.81132    2.00000
   56     -9.71625    2.00000
   57     -9.38384    2.00000
   58     -9.38166    2.00000
   59     -9.26343    2.00000
   60     -9.26315    2.00000
   61     -9.20987    2.00000
   62     -9.20832    2.00000
   63     -9.20813    2.00000
   64     -9.18792    2.00000
   65     -9.09334    2.00000
   66     -9.09158    2.00000
   67     -9.09005    2.00000
   68     -9.03822    2.00000
   69     -9.02817    2.00000
   70     -9.02629    2.00000
   71     -8.98102    2.00000
   72     -8.96760    2.00000
   73     -8.96676    2.00000
   74     -7.79179    2.00000
   75     -7.78741    2.00000
   76     -7.71304    2.00000
   77     -7.61117    2.00000
   78     -7.61053    2.00000
   79     -7.58523    2.00000
   80     -7.55255    2.00000
   81     -7.44437    2.00000
   82     -7.44366    2.00000
   83     -7.37702    2.00000
   84     -7.37652    2.00000
   85     -7.35790    2.00000
   86     -6.81540    2.00000
   87     -6.73281    2.00000
   88     -6.73278    2.00000
   89     -6.63852    2.00000
   90     -6.63775    2.00000
   91     -6.63675    2.00000
   92     -6.44903    2.00000
   93     -6.44447    2.00000
   94     -5.49876    2.00000
   95     -5.49846    2.00000
   96     -5.38540    2.00000
   97     -5.34413    2.00000
   98     -5.34382    2.00000
   99     -5.32740    2.00000
  100     -1.24501    1.00000
  101     -0.17125    0.00000
  102     -0.15729    0.00000
  103     -0.15376    0.00000
  104     -0.10462    0.00000
  105     -0.10143    0.00000
  106      0.67211    0.00000
  107      0.88834    0.00000
  108      0.89207    0.00000
  109      0.94882    0.00000
  110      0.94980    0.00000
  111      1.01295    0.00000
  112      2.00658    0.00000
  113      2.18698    0.00000
  114      2.18856    0.00000
  115      2.25944    0.00000
  116      2.31104    0.00000
  117      2.31209    0.00000
  118      3.21786    0.00000
  119      3.50674    0.00000
  120      3.54904    0.00000
  121      3.55275    0.00000
  122      3.60446    0.00000
  123      3.64037    0.00000
  124      3.64088    0.00000

Fermi level: -1.24501

Gap: 4.082 eV
Transition (v -> c):
  (s=0, k=0, n=99, [0.00, 0.00, 0.00]) -> (s=0, k=0, n=100, [0.00, 0.00, 0.00])
No difference between direct/indirect transitions

Forces in eV/Ang:
  0 C    -0.02127    0.01227    0.00000
  1 N    -0.01819    0.01393    0.00000
  2 B     0.08096   -0.15518    0.00000
  3 N     0.01254   -0.25893    0.00000
  4 B     0.03639   -0.07218    0.00000
  5 N    -0.05870   -0.05222    0.00000
  6 B    -0.03530    0.06124    0.00000
  7 N    -0.19863    0.14493    0.00000
  8 B    -0.10042    0.16090    0.00000
  9 N    -0.02464    0.01424    0.00000
 10 B    -0.18957    0.00648    0.00000
 11 N    -0.10329   -0.06005    0.00000
 12 B    -0.09240   -0.15478    0.00000
 13 N    -0.04400   -0.25034    0.00000
 14 B    -0.01378   -0.02114    0.00000
 15 N    -0.00677   -0.02516    0.00000
 16 B    -0.02779   -0.01816    0.00000
 17 N    -0.01130    0.00654    0.00000
 18 B    -0.01452    0.00834    0.00000
 19 N    -0.22481    0.09958    0.00000
 20 B    -0.07071   -0.00007    0.00000
 21 N     0.00397    0.04508    0.00000
 22 B     0.08096    0.04374    0.00000
 23 N     0.03832   -0.03686    0.00000
 24 B    -0.04452   -0.06749    0.00000
 25 N     0.05881   -0.03394    0.00000
 26 B     0.01941   -0.01123    0.00000
 27 N     0.01840    0.01845    0.00000
 28 B     0.00181    0.03310    0.00000
 29 N     0.01588    0.07700    0.00000
 30 B     0.08070    0.00454    0.00000
 31 N     0.02697    0.04826    0.00000
 32 B     0.00606    0.00053    0.00000
 33 N     0.01654   -0.00951    0.00000
 34 B     0.00551   -0.00319    0.00000
 35 N     0.05111   -0.01474    0.00000
 36 B     0.03616    0.07228    0.00000
 37 N     0.19481    0.16328    0.00000
 38 B     0.01141    0.02246    0.00000
 39 N     0.23050    0.11864    0.00000
 40 B     0.17486    0.00744    0.00000
 41 N     0.10177   -0.05873    0.00000
 42 B    -0.07549    0.04358    0.00000
 43 N    -0.02828   -0.04745    0.00000
 44 B     0.00256   -0.00552    0.00000
 45 N    -0.03704   -0.02594    0.00000
 46 B     0.00260   -0.09200    0.00000
 47 N     0.00038    0.11948    0.00000
 48 B     0.08783    0.15738    0.00000
 49 N    -0.02119    0.00877    0.00000

System changes: positions 

Initializing position-dependent things.

Density initialized from wave functions
                                                            
                                                            
                                                            
                                                            
              N     N     N     N      N                    
             B N   B  N  B  N  B  N   B N                   
               B     B     B     B     B                    
                BN    BN     B     BN    BN                 
                   N     N     N     N      N               
                  B  N  B  N  B  N  B  N   B N              
                    C     B     B     B     B               
                                                            
                                                            
                                                            
                                                            

Positions:
   0 C     -0.000828    0.000477   20.000000    ( 0.0000,  0.0000,  0.0000)
   1 N     -0.001294    1.397247   20.000000    ( 0.0000,  0.0000,  0.0000)
   2 B     -1.247141    2.152529   20.000000    ( 0.0000,  0.0000,  0.0000)
   3 N     -1.246570    3.597051   20.000000    ( 0.0000,  0.0000,  0.0000)
   4 B     -2.501397    4.325194   20.000000    ( 0.0000,  0.0000,  0.0000)
   5 N     -2.504663    5.769627   20.000000    ( 0.0000,  0.0000,  0.0000)
   6 B     -3.753944    6.495543   20.000000    ( 0.0000,  0.0000,  0.0000)
   7 N     -3.757028    7.947681   20.000000    ( 0.0000,  0.0000,  0.0000)
   8 B     -5.009040    8.669544   20.000000    ( 0.0000,  0.0000,  0.0000)
   9 N     -5.042311   10.128055   20.000000    ( 0.0000,  0.0000,  0.0000)
  10 B      2.487437    0.003187   20.000000    ( 0.0000,  0.0000,  0.0000)
  11 N      2.502018    1.444990   20.000000    ( 0.0000,  0.0000,  0.0000)
  12 B      1.246085    2.152585   20.000000    ( 0.0000,  0.0000,  0.0000)
  13 N      1.244005    3.597571   20.000000    ( 0.0000,  0.0000,  0.0000)
  14 B     -0.000787    4.329550   20.000000    ( 0.0000,  0.0000,  0.0000)
  15 N     -0.000719    5.771437   20.000000    ( 0.0000,  0.0000,  0.0000)
  16 B     -1.250992    6.494292   20.000000    ( 0.0000,  0.0000,  0.0000)
  17 N     -1.251199    7.939255   20.000000    ( 0.0000,  0.0000,  0.0000)
  18 B     -2.499835    8.660160   20.000000    ( 0.0000,  0.0000,  0.0000)
  19 N     -2.511410   10.105154   20.000000    ( 0.0000,  0.0000,  0.0000)
  20 B      4.997724    0.003243   20.000000    ( 0.0000,  0.0000,  0.0000)
  21 N      5.001435    1.445561   20.000000    ( 0.0000,  0.0000,  0.0000)
  22 B      3.750359    2.164694   20.000000    ( 0.0000,  0.0000,  0.0000)
  23 N      3.752266    3.607594   20.000000    ( 0.0000,  0.0000,  0.0000)
  24 B      2.501131    4.325678   20.000000    ( 0.0000,  0.0000,  0.0000)
  25 N      2.504198    5.771076   20.000000    ( 0.0000,  0.0000,  0.0000)
  26 B      1.250583    6.494856   20.000000    ( 0.0000,  0.0000,  0.0000)
  27 N      1.251427    7.940217   20.000000    ( 0.0000,  0.0000,  0.0000)
  28 B      0.000284    8.661566   20.000000    ( 0.0000,  0.0000,  0.0000)
  29 N      0.001022   10.109602   20.000000    ( 0.0000,  0.0000,  0.0000)
  30 B      7.503576    0.003681   20.000000    ( 0.0000,  0.0000,  0.0000)
  31 N      7.500479    1.445672   20.000000    ( 0.0000,  0.0000,  0.0000)
  32 B      6.250984    2.164959   20.000000    ( 0.0000,  0.0000,  0.0000)
  33 N      6.250985    3.607868   20.000000    ( 0.0000,  0.0000,  0.0000)
  34 B      5.000898    4.329611   20.000000    ( 0.0000,  0.0000,  0.0000)
  35 N      5.001863    5.771959   20.000000    ( 0.0000,  0.0000,  0.0000)
  36 B      3.754420    6.496439   20.000000    ( 0.0000,  0.0000,  0.0000)
  37 N      3.756412    7.949188   20.000000    ( 0.0000,  0.0000,  0.0000)
  38 B      2.500108    8.661226   20.000000    ( 0.0000,  0.0000,  0.0000)
  39 N      2.511576   10.106349   20.000000    ( 0.0000,  0.0000,  0.0000)
  40 B     10.012285    0.003795   20.000000    ( 0.0000,  0.0000,  0.0000)
  41 N      9.997223    1.444976   20.000000    ( 0.0000,  0.0000,  0.0000)
  42 B      8.750462    2.164800   20.000000    ( 0.0000,  0.0000,  0.0000)
  43 N      8.748249    3.606873   20.000000    ( 0.0000,  0.0000,  0.0000)
  44 B      7.500585    4.329332   20.000000    ( 0.0000,  0.0000,  0.0000)
  45 N      7.498823    5.771164   20.000000    ( 0.0000,  0.0000,  0.0000)
  46 B      6.250502    6.495068   20.000000    ( 0.0000,  0.0000,  0.0000)
  47 N      6.249609    7.936008   20.000000    ( 0.0000,  0.0000,  0.0000)
  48 B      5.008852    8.669886   20.000000    ( 0.0000,  0.0000,  0.0000)
  49 N      5.039301   10.127812   20.000000    ( 0.0000,  0.0000,  0.0000)

Unit cell:
           periodic     x           y           z      points  spacing
  1. axis:    yes   12.500000    0.000000    0.000000    56     0.1933
  2. axis:    yes   -6.250000   10.825318    0.000000    56     0.1933
  3. axis:    yes    0.000000    0.000000   40.000000   200     0.2000

  Lengths:  12.500000  12.500000  40.000000
  Angles:   90.000000  90.000000 120.000000

Effective grid spacing dv^(1/3) = 0.2051

     iter     time        total  log10-change:
                         energy   eigst   dens
iter:   1 14:48:23  -418.214657        c
iter:   2 14:48:28  -418.211961        c -2.91
iter:   3 14:48:33  -418.206833c       c -2.99
iter:   4 14:48:38  -418.206676c       c -3.41
iter:   5 14:48:43  -418.206674c       c -3.72
iter:   6 14:48:48  -418.206652c       c -3.87
iter:   7 14:48:52  -418.206652c       c -4.37c

Converged after 7 iterations.

Dipole moment: (-24.751625, -6.291157, -0.000000) |e|*Ang

Energy contributions relative to reference atoms: (reference = -54138.415335)

Kinetic:       +384.008348
Potential:     -389.955195
External:        +0.000000
XC:            -428.565852
Entropy (-ST):   -0.069315
Local:          +16.340704
SIC:             +0.000000
--------------------------
Free energy:   -418.241309
Extrapolated:  -418.206652

 Band  Eigenvalues  Occupancy
    0    -23.88587    2.00000
    1    -22.54757    2.00000
    2    -22.12135    2.00000
    3    -22.12116    2.00000
    4    -21.97035    2.00000
    5    -21.96934    2.00000
    6    -21.95477    2.00000
    7    -21.04827    2.00000
    8    -21.01133    2.00000
    9    -21.01086    2.00000
   10    -20.67145    2.00000
   11    -20.67118    2.00000
   12    -20.63334    2.00000
   13    -20.34111    2.00000
   14    -20.34010    2.00000
   15    -20.29256    2.00000
   16    -20.17257    2.00000
   17    -20.16941    2.00000
   18    -20.16802    2.00000
   19    -19.55911    2.00000
   20    -19.55862    2.00000
   21    -19.34356    2.00000
   22    -19.33088    2.00000
   23    -19.33084    2.00000
   24    -19.30949    2.00000
   25    -15.21112    2.00000
   26    -13.88556    2.00000
   27    -13.88509    2.00000
   28    -13.52283    2.00000
   29    -13.49086    2.00000
   30    -13.49084    2.00000
   31    -13.28838    2.00000
   32    -13.21753    2.00000
   33    -13.21718    2.00000
   34    -13.17850    2.00000
   35    -13.17752    2.00000
   36    -13.12097    2.00000
   37    -11.94062    2.00000
   38    -11.93703    2.00000
   39    -11.92147    2.00000
   40    -11.62086    2.00000
   41    -11.62085    2.00000
   42    -11.55894    2.00000
   43    -11.20429    2.00000
   44    -11.19781    2.00000
   45    -11.19420    2.00000
   46    -11.03243    2.00000
   47    -10.99673    2.00000
   48    -10.99449    2.00000
   49    -10.47303    2.00000
   50    -10.14988    2.00000
   51    -10.14798    2.00000
   52     -9.96803    2.00000
   53     -9.83077    2.00000
   54     -9.80708    2.00000
   55     -9.80658    2.00000
   56     -9.74006    2.00000
   57     -9.38900    2.00000
   58     -9.38706    2.00000
   59     -9.25955    2.00000
   60     -9.25951    2.00000
   61     -9.21251    2.00000
   62     -9.20038    2.00000
   63     -9.19949    2.00000
   64     -9.18733    2.00000
   65     -9.10906    2.00000
   66     -9.09792    2.00000
   67     -9.09646    2.00000
   68     -9.03325    2.00000
   69     -9.01745    2.00000
   70     -9.01589    2.00000
   71     -8.97077    2.00000
   72     -8.95140    2.00000
   73     -8.95133    2.00000
   74     -7.79621    2.00000
   75     -7.79096    2.00000
   76     -7.72129    2.00000
   77     -7.61603    2.00000
   78     -7.61382    2.00000
   79     -7.56808    2.00000
   80     -7.54762    2.00000
   81     -7.45802    2.00000
   82     -7.45679    2.00000
   83     -7.37028    2.00000
   84     -7.36991    2.00000
   85     -7.34338    2.00000
   86     -6.81257    2.00000
   87     -6.73361    2.00000
   88     -6.73320    2.00000
   89     -6.63980    2.00000
   90     -6.63795    2.00000
   91     -6.62901    2.00000
   92     -6.44610    2.00000
   93     -6.44269    2.00000
   94     -5.50161    2.00000
   95     -5.50102    2.00000
   96     -5.38834    2.00000
   97     -5.33834    2.00000
   98     -5.33779    2.00000
   99     -5.32682    2.00000
  100     -1.23819    1.00000
  101     -0.16204    0.00000
  102     -0.16060    0.00000
  103     -0.15587    0.00000
  104     -0.10742    0.00000
  105     -0.10323    0.00000
  106      0.67930    0.00000
  107      0.88813    0.00000
  108      0.89142    0.00000
  109      0.94770    0.00000
  110      0.94895    0.00000
  111      1.00930    0.00000
  112      2.00374    0.00000
  113      2.18650    0.00000
  114      2.18851    0.00000
  115      2.25413    0.00000
  116      2.31159    0.00000
  117      2.31254    0.00000
  118      3.22466    0.00000
  119      3.51608    0.00000
  120      3.54599    0.00000
  121      3.55074    0.00000
  122      3.59634    0.00000
  123      3.64480    0.00000
  124      3.64617    0.00000

Fermi level: -1.23819

Gap: 4.089 eV
Transition (v -> c):
  (s=0, k=0, n=99, [0.00, 0.00, 0.00]) -> (s=0, k=0, n=100, [0.00, 0.00, 0.00])
No difference between direct/indirect transitions

Forces in eV/Ang:
  0 C    -0.02637    0.01522    0.00000
  1 N    -0.00156    0.09676    0.00000
  2 B    -0.02601   -0.03908    0.00000
  3 N     0.00712   -0.11579    0.00000
  4 B     0.05775   -0.09550    0.00000
  5 N    -0.01166   -0.00947    0.00000
  6 B    -0.04218    0.09232    0.00000
  7 N    -0.10730    0.07804    0.00000
  8 B    -0.05110    0.01291    0.00000
  9 N     0.09328   -0.05385    0.00000
 10 B    -0.03673    0.03781    0.00000
 11 N    -0.07089   -0.03717    0.00000
 12 B     0.01763   -0.04123    0.00000
 13 N    -0.02471   -0.12607    0.00000
 14 B    -0.01137   -0.11549    0.00000
 15 N    -0.00406   -0.03061    0.00000
 16 B    -0.02917   -0.01928    0.00000
 17 N    -0.02441    0.01407    0.00000
 18 B    -0.09534    0.05506    0.00000
 19 N    -0.12126    0.05389    0.00000
 20 B    -0.10103   -0.00960    0.00000
 21 N     0.01315   -0.01014    0.00000
 22 B    -0.02737   -0.02131    0.00000
 23 N    -0.00361    0.01264    0.00000
 24 B    -0.06386   -0.09033    0.00000
 25 N     0.01601   -0.00925    0.00000
 26 B     0.02621   -0.01512    0.00000
 27 N     0.02447    0.01879    0.00000
 28 B     0.00212    0.03494    0.00000
 29 N     0.00237    0.01483    0.00000
 30 B     0.11159   -0.00222    0.00000
 31 N    -0.00801   -0.00778    0.00000
 32 B     0.00698    0.00186    0.00000
 33 N     0.00132   -0.00078    0.00000
 34 B     0.00730   -0.00419    0.00000
 35 N    -0.01277   -0.00321    0.00000
 36 B     0.04631    0.10048    0.00000
 37 N     0.09683    0.08439    0.00000
 38 B     0.09434    0.06761    0.00000
 39 N     0.10383    0.05174    0.00000
 40 B     0.02085    0.04208    0.00000
 41 N     0.06598   -0.03811    0.00000
 42 B     0.03764   -0.02171    0.00000
 43 N     0.00270    0.01080    0.00000
 44 B     0.00190   -0.00694    0.00000
 45 N     0.01534   -0.00635    0.00000
 46 B     0.00479    0.03438    0.00000
 47 N    -0.00326    0.07995    0.00000
 48 B     0.04452    0.00535    0.00000
 49 N    -0.08460   -0.04705    0.00000

System changes: positions 

Initializing position-dependent things.

Density initialized from wave functions
                                                            
                                                            
                                                            
                                                            
              N     N     N     N      N                    
             B N   B  N  B  N  B  N   B N                   
               B     B     B     B     B                    
                BN    BN     B     BN    BN                 
                   N     N     N     N      N               
                  B  N  B  N  B  N  B  N   B N              
                    C     B     B     B     B               
                                                            
                                                            
                                                            
                                                            

Positions:
   0 C     -0.001566    0.000903   20.000000    ( 0.0000,  0.0000,  0.0000)
   1 N     -0.001451    1.395838   20.000000    ( 0.0000,  0.0000,  0.0000)
   2 B     -1.246488    2.149139   20.000000    ( 0.0000,  0.0000,  0.0000)
   3 N     -1.245993    3.592824   20.000000    ( 0.0000,  0.0000,  0.0000)
   4 B     -2.500261    4.322270   20.000000    ( 0.0000,  0.0000,  0.0000)
   5 N     -2.505416    5.768959   20.000000    ( 0.0000,  0.0000,  0.0000)
   6 B     -3.755493    6.497748   20.000000    ( 0.0000,  0.0000,  0.0000)
   7 N     -3.760459    7.950628   20.000000    ( 0.0000,  0.0000,  0.0000)
   8 B     -5.011698    8.672293   20.000000    ( 0.0000,  0.0000,  0.0000)
   9 N     -5.043721   10.128869   20.000000    ( 0.0000,  0.0000,  0.0000)
  10 B      2.483728    0.004114   20.000000    ( 0.0000,  0.0000,  0.0000)
  11 N      2.500800    1.444390   20.000000    ( 0.0000,  0.0000,  0.0000)
  12 B      1.244997    2.149158   20.000000    ( 0.0000,  0.0000,  0.0000)
  13 N      1.242765    3.593203   20.000000    ( 0.0000,  0.0000,  0.0000)
  14 B     -0.001211    4.326799   20.000000    ( 0.0000,  0.0000,  0.0000)
  15 N     -0.000871    5.770671   20.000000    ( 0.0000,  0.0000,  0.0000)
  16 B     -1.251952    6.493655   20.000000    ( 0.0000,  0.0000,  0.0000)
  17 N     -1.251717    7.939554   20.000000    ( 0.0000,  0.0000,  0.0000)
  18 B     -2.502031    8.661428   20.000000    ( 0.0000,  0.0000,  0.0000)
  19 N     -2.515679   10.106651   20.000000    ( 0.0000,  0.0000,  0.0000)
  20 B      4.995040    0.003483   20.000000    ( 0.0000,  0.0000,  0.0000)
  21 N      5.001793    1.445638   20.000000    ( 0.0000,  0.0000,  0.0000)
  22 B      3.750137    2.164369   20.000000    ( 0.0000,  0.0000,  0.0000)
  23 N      3.752465    3.607639   20.000000    ( 0.0000,  0.0000,  0.0000)
  24 B      2.499756    4.322953   20.000000    ( 0.0000,  0.0000,  0.0000)
  25 N      2.505036    5.770592   20.000000    ( 0.0000,  0.0000,  0.0000)
  26 B      1.251341    6.494418   20.000000    ( 0.0000,  0.0000,  0.0000)
  27 N      1.252014    7.940731   20.000000    ( 0.0000,  0.0000,  0.0000)
  28 B      0.000355    8.662715   20.000000    ( 0.0000,  0.0000,  0.0000)
  29 N      0.001224   10.110588   20.000000    ( 0.0000,  0.0000,  0.0000)
  30 B      7.506676    0.004159   20.000000    ( 0.0000,  0.0000,  0.0000)
  31 N      7.500488    1.445814   20.000000    ( 0.0000,  0.0000,  0.0000)
  32 B      6.251290    2.165077   20.000000    ( 0.0000,  0.0000,  0.0000)
  33 N      6.251140    3.607779   20.000000    ( 0.0000,  0.0000,  0.0000)
  34 B      5.001270    4.329397   20.000000    ( 0.0000,  0.0000,  0.0000)
  35 N      5.001924    5.771764   20.000000    ( 0.0000,  0.0000,  0.0000)
  36 B      3.756093    6.498992   20.000000    ( 0.0000,  0.0000,  0.0000)
  37 N      3.759575    7.952445   20.000000    ( 0.0000,  0.0000,  0.0000)
  38 B      2.502278    8.662969   20.000000    ( 0.0000,  0.0000,  0.0000)
  39 N      2.515525   10.107963   20.000000    ( 0.0000,  0.0000,  0.0000)
  40 B     10.015547    0.004925   20.000000    ( 0.0000,  0.0000,  0.0000)
  41 N      9.998321    1.444342   20.000000    ( 0.0000,  0.0000,  0.0000)
  42 B      8.751001    2.164489   20.000000    ( 0.0000,  0.0000,  0.0000)
  43 N      8.748130    3.606794   20.000000    ( 0.0000,  0.0000,  0.0000)
  44 B      7.500637    4.329008   20.000000    ( 0.0000,  0.0000,  0.0000)
  45 N      7.498935    5.770814   20.000000    ( 0.0000,  0.0000,  0.0000)
  46 B      6.250672    6.495423   20.000000    ( 0.0000,  0.0000,  0.0000)
  47 N      6.249520    7.937362   20.000000    ( 0.0000,  0.0000,  0.0000)
  48 B      5.011276    8.672542   20.000000    ( 0.0000,  0.0000,  0.0000)
  49 N      5.040443   10.128652   20.000000    ( 0.0000,  0.0000,  0.0000)

Unit cell:
           periodic     x           y           z      points  spacing
  1. axis:    yes   12.500000    0.000000    0.000000    56     0.1933
  2. axis:    yes   -6.250000   10.825318    0.000000    56     0.1933
  3. axis:    yes    0.000000    0.000000   40.000000   200     0.2000

  Lengths:  12.500000  12.500000  40.000000
  Angles:   90.000000  90.000000 120.000000

Effective grid spacing dv^(1/3) = 0.2051

     iter     time        total  log10-change:
                         energy   eigst   dens
iter:   1 14:49:09  -418.214041        c
iter:   2 14:49:14  -418.213106        c -3.12
iter:   3 14:49:18  -418.211200c       c -3.20
iter:   4 14:49:23  -418.211104c       c -3.58
iter:   5 14:49:27  -418.211100c       c -3.88
iter:   6 14:49:32  -418.211090c       c -4.06c

Converged after 6 iterations.

Dipole moment: (-24.453391, -6.439524, -0.000000) |e|*Ang

Energy contributions relative to reference atoms: (reference = -54138.415335)

Kinetic:       +384.057418
Potential:     -390.004008
External:        +0.000000
XC:            -428.573790
Entropy (-ST):   -0.069315
Local:          +16.343948
SIC:             +0.000000
--------------------------
Free energy:   -418.245747
Extrapolated:  -418.211090

 Band  Eigenvalues  Occupancy
    0    -23.91735    2.00000
    1    -22.54077    2.00000
    2    -22.13257    2.00000
    3    -22.13245    2.00000
    4    -21.96341    2.00000
    5    -21.96148    2.00000
    6    -21.94530    2.00000
    7    -21.05455    2.00000
    8    -21.02084    2.00000
    9    -21.01913    2.00000
   10    -20.67119    2.00000
   11    -20.67108    2.00000
   12    -20.63236    2.00000
   13    -20.33750    2.00000
   14    -20.33655    2.00000
   15    -20.28094    2.00000
   16    -20.17649    2.00000
   17    -20.16670    2.00000
   18    -20.16565    2.00000
   19    -19.56194    2.00000
   20    -19.56184    2.00000
   21    -19.34166    2.00000
   22    -19.32231    2.00000
   23    -19.32139    2.00000
   24    -19.31079    2.00000
   25    -15.22528    2.00000
   26    -13.90170    2.00000
   27    -13.90026    2.00000
   28    -13.51972    2.00000
   29    -13.48776    2.00000
   30    -13.48693    2.00000
   31    -13.27585    2.00000
   32    -13.22303    2.00000
   33    -13.22137    2.00000
   34    -13.17224    2.00000
   35    -13.17100    2.00000
   36    -13.11784    2.00000
   37    -11.94635    2.00000
   38    -11.94417    2.00000
   39    -11.92021    2.00000
   40    -11.62306    2.00000
   41    -11.62293    2.00000
   42    -11.55609    2.00000
   43    -11.20386    2.00000
   44    -11.19708    2.00000
   45    -11.19196    2.00000
   46    -11.03299    2.00000
   47    -10.99412    2.00000
   48    -10.99131    2.00000
   49    -10.48699    2.00000
   50    -10.14771    2.00000
   51    -10.14729    2.00000
   52     -9.96726    2.00000
   53     -9.83018    2.00000
   54     -9.81012    2.00000
   55     -9.80952    2.00000
   56     -9.74272    2.00000
   57     -9.38720    2.00000
   58     -9.38616    2.00000
   59     -9.26610    2.00000
   60     -9.26527    2.00000
   61     -9.21443    2.00000
   62     -9.19394    2.00000
   63     -9.19189    2.00000
   64     -9.17956    2.00000
   65     -9.12078    2.00000
   66     -9.10617    2.00000
   67     -9.10344    2.00000
   68     -9.03113    2.00000
   69     -9.01609    2.00000
   70     -9.01542    2.00000
   71     -8.96508    2.00000
   72     -8.93986    2.00000
   73     -8.93937    2.00000
   74     -7.79617    2.00000
   75     -7.79245    2.00000
   76     -7.72653    2.00000
   77     -7.61682    2.00000
   78     -7.61522    2.00000
   79     -7.56505    2.00000
   80     -7.54401    2.00000
   81     -7.46143    2.00000
   82     -7.45973    2.00000
   83     -7.36913    2.00000
   84     -7.36850    2.00000
   85     -7.34316    2.00000
   86     -6.80274    2.00000
   87     -6.73445    2.00000
   88     -6.73386    2.00000
   89     -6.63933    2.00000
   90     -6.63744    2.00000
   91     -6.63041    2.00000
   92     -6.44493    2.00000
   93     -6.44115    2.00000
   94     -5.50570    2.00000
   95     -5.50447    2.00000
   96     -5.38872    2.00000
   97     -5.33168    2.00000
   98     -5.33042    2.00000
   99     -5.32938    2.00000
  100     -1.23762    1.00000
  101     -0.15931    0.00000
  102     -0.15872    0.00000
  103     -0.15410    0.00000
  104     -0.11125    0.00000
  105     -0.10592    0.00000
  106      0.67923    0.00000
  107      0.88875    0.00000
  108      0.89083    0.00000
  109      0.94964    0.00000
  110      0.95149    0.00000
  111      1.00657    0.00000
  112      1.99995    0.00000
  113      2.18868    0.00000
  114      2.19076    0.00000
  115      2.25306    0.00000
  116      2.31013    0.00000
  117      2.31139    0.00000
  118      3.22596    0.00000
  119      3.52158    0.00000
  120      3.54533    0.00000
  121      3.55099    0.00000
  122      3.59313    0.00000
  123      3.64515    0.00000
  124      3.64631    0.00000

Fermi level: -1.23762

Gap: 4.092 eV
Transition (v -> c):
  (s=0, k=0, n=99, [0.00, 0.00, 0.00]) -> (s=0, k=0, n=100, [0.00, 0.00, 0.00])
No difference between direct/indirect transitions

Forces in eV/Ang:
  0 C     0.00594   -0.00343    0.00000
  1 N    -0.00817    0.08239    0.00000
  2 B    -0.02522    0.02594    0.00000
  3 N     0.00131   -0.04104    0.00000
  4 B     0.03076   -0.00713    0.00000
  5 N    -0.02796   -0.01732    0.00000
  6 B     0.00772    0.04003    0.00000
  7 N    -0.03715    0.03242    0.00000
  8 B    -0.00234   -0.03216    0.00000
  9 N     0.05886   -0.03399    0.00000
 10 B     0.02668    0.01812    0.00000
 11 N    -0.01799   -0.00670    0.00000
 12 B     0.02985    0.01826    0.00000
 13 N    -0.01950   -0.03987    0.00000
 14 B    -0.00155   -0.06215    0.00000
 15 N    -0.00175   -0.08301    0.00000
 16 B    -0.00333   -0.00107    0.00000
 17 N    -0.07094    0.04097    0.00000
 18 B    -0.06094    0.03518    0.00000
 19 N    -0.04666    0.01595    0.00000
 20 B    -0.03081   -0.02670    0.00000
 21 N    -0.02850   -0.00464    0.00000
 22 B    -0.03202   -0.01969    0.00000
 23 N    -0.02100   -0.02714    0.00000
 24 B    -0.03740   -0.01402    0.00000
 25 N     0.02572   -0.01485    0.00000
 26 B     0.00532   -0.00308    0.00000
 27 N     0.07101    0.04302    0.00000
 28 B    -0.00074    0.00343    0.00000
 29 N     0.00102    0.03287    0.00000
 30 B     0.02156   -0.02306    0.00000
 31 N     0.03655   -0.00201    0.00000
 32 B    -0.00253   -0.01278    0.00000
 33 N     0.00214   -0.00123    0.00000
 34 B    -0.01519    0.00877    0.00000
 35 N     0.01300    0.03176    0.00000
 36 B    -0.00655    0.03939    0.00000
 37 N     0.02479    0.03682    0.00000
 38 B     0.05306    0.03242    0.00000
 39 N     0.03618    0.01937    0.00000
 40 B    -0.03507    0.00888    0.00000
 41 N     0.01285   -0.00742    0.00000
 42 B     0.03094   -0.01786    0.00000
 43 N     0.02003   -0.03064    0.00000
 44 B     0.00980    0.00858    0.00000
 45 N    -0.01023    0.02701    0.00000
 46 B     0.00104    0.03757    0.00000
 47 N    -0.00319    0.01893    0.00000
 48 B    -0.00089   -0.03498    0.00000
 49 N    -0.07544   -0.03413    0.00000

Writing to /Users/denniswayo/gpaw-DFT/emitter2chip/hBN_5x5_CB/hBN_5x5_CB_lcao.gpw (mode='all')

Timing:                                       incl.     excl.
--------------------------------------------------------------------
Basic WFS set positions:                      0.016     0.007   0.0% |
 Redistribute:                                0.010     0.010   0.0% |
Basis functions set positions:                1.116     1.116   0.4% |
Forces:                                      49.146     0.622   0.2% |
 LCAO forces:                                48.524     0.028   0.0% |
  Atomic Hamiltonian force:                   0.975     0.975   0.4% |
  Initial:                                    0.078     0.000   0.0% |
   Get density matrix:                        0.078     0.078   0.0% |
  Paw correction:                             0.962     0.962   0.4% |
  Potential:                                 41.517    41.517  15.7% |-----|
  TCI derivative:                             4.964     4.964   1.9% ||
  Wait for sum:                               0.000     0.000   0.0% |
LCAO WFS Initialize:                         15.362     0.142   0.1% |
 Density initialized from wave functions:     4.749     0.570   0.2% |
  Calculate density matrix:                   0.028     0.028   0.0% |
  Construct density:                          4.150     4.150   1.6% ||
  Symmetrize density:                         0.001     0.001   0.0% |
 Hamiltonian:                                10.472     0.001   0.0% |
  Atomic:                                     3.141     0.014   0.0% |
   XC Correction:                             3.127     3.127   1.2% |
  Calculate atomic Hamiltonians:              0.062     0.062   0.0% |
  Communicate:                                0.000     0.000   0.0% |
  Hartree integrate/restrict:                 0.227     0.227   0.1% |
  Initialize Hamiltonian:                     0.000     0.000   0.0% |
  Poisson:                                    2.734     0.234   0.1% |
   Communicate from 1D:                       0.258     0.258   0.1% |
   Communicate from 2D:                       0.154     0.154   0.1% |
   Communicate to 1D:                         0.115     0.115   0.0% |
   Communicate to 2D:                         0.686     0.686   0.3% |
   FFT 1D:                                    0.314     0.314   0.1% |
   FFT 2D:                                    0.973     0.973   0.4% |
  XC 3D grid:                                 4.203     4.203   1.6% ||
  vbar:                                       0.104     0.104   0.0% |
P tci:                                        3.146     3.146   1.2% |
Redistribute:                                 0.001     0.001   0.0% |
SCF-cycle:                                  190.051     0.080   0.0% |
 Density:                                    43.202     0.001   0.0% |
  Atomic density matrices:                    0.128     0.128   0.0% |
  Mix:                                        5.628     5.628   2.1% ||
  Multipole moments:                          0.023     0.023   0.0% |
  Normalize:                                  0.012     0.012   0.0% |
  Pseudo density:                            37.410     0.081   0.0% |
   Calculate density matrix:                  0.252     0.252   0.1% |
   Construct density:                        37.073    37.073  14.0% |-----|
   Symmetrize density:                        0.004     0.004   0.0% |
 Hamiltonian:                                73.481     0.007   0.0% |
  Atomic:                                    22.090     0.119   0.0% |
   XC Correction:                            21.971    21.971   8.3% |--|
  Calculate atomic Hamiltonians:              0.421     0.421   0.2% |
  Communicate:                                0.001     0.001   0.0% |
  Hartree integrate/restrict:                 1.294     1.294   0.5% |
  Poisson:                                   18.115     1.396   0.5% |
   Communicate from 1D:                       1.379     1.379   0.5% |
   Communicate from 2D:                       1.133     1.133   0.4% |
   Communicate to 1D:                         0.817     0.817   0.3% |
   Communicate to 2D:                         4.378     4.378   1.7% ||
   FFT 1D:                                    2.290     2.290   0.9% |
   FFT 2D:                                    6.722     6.722   2.5% ||
  XC 3D grid:                                30.284    30.284  11.5% |----|
  vbar:                                       1.269     1.269   0.5% |
 LCAO eigensolver:                           73.287     0.074   0.0% |
  Calculate projections:                      0.328     0.328   0.1% |
  DenseAtomicCorrection:                      1.620     1.620   0.6% |
  Distribute overlap matrix:                  0.004     0.004   0.0% |
  Orbital Layouts:                            9.195     9.195   3.5% ||
  Potential matrix:                          62.067    62.067  23.5% |--------|
ST tci:                                       0.770     0.770   0.3% |
Set symmetry:                                 0.000     0.000   0.0% |
TCI: Evaluate splines:                        0.323     0.323   0.1% |
mktci:                                        0.097     0.097   0.0% |
Other:                                        3.851     3.851   1.5% ||
--------------------------------------------------------------------
Total:                                                263.879 100.0%

Memory usage: 1.89 GiB
Date: Mon Dec 15 14:49:41 2025
