50
Lattice="12.5 0.0 0.0 -6.250000000000001 10.825317547305481 0.0 0.0 0.0 40.0" Properties=species:S:1:pos:R:3:spacegroup_kinds:I:1:magmoms:R:1:forces:R:3 spacegroup="P 1" unit_cell=conventional occupancy="_JSON {\"0\": {\"C\": 1.0}, \"1\": {\"N\": 1.0}, \"2\": {\"B\": 1.0}, \"3\": {\"N\": 1.0}, \"4\": {\"B\": 1.0}, \"5\": {\"N\": 1.0}, \"6\": {\"B\": 1.0}, \"7\": {\"N\": 1.0}, \"8\": {\"B\": 1.0}, \"9\": {\"N\": 1.0}, \"10\": {\"B\": 1.0}, \"11\": {\"N\": 1.0}, \"12\": {\"B\": 1.0}, \"13\": {\"N\": 1.0}, \"14\": {\"B\": 1.0}, \"15\": {\"N\": 1.0}, \"16\": {\"B\": 1.0}, \"17\": {\"N\": 1.0}, \"18\": {\"B\": 1.0}, \"19\": {\"N\": 1.0}, \"20\": {\"B\": 1.0}, \"21\": {\"N\": 1.0}, \"22\": {\"B\": 1.0}, \"23\": {\"N\": 1.0}, \"24\": {\"B\": 1.0}, \"25\": {\"N\": 1.0}, \"26\": {\"B\": 1.0}, \"27\": {\"N\": 1.0}, \"28\": {\"B\": 1.0}, \"29\": {\"N\": 1.0}, \"30\": {\"B\": 1.0}, \"31\": {\"N\": 1.0}, \"32\": {\"B\": 1.0}, \"33\": {\"N\": 1.0}, \"34\": {\"B\": 1.0}, \"35\": {\"N\": 1.0}, \"36\": {\"B\": 1.0}, \"37\": {\"N\": 1.0}, \"38\": {\"B\": 1.0}, \"39\": {\"N\": 1.0}, \"40\": {\"B\": 1.0}, \"41\": {\"N\": 1.0}, \"42\": {\"B\": 1.0}, \"43\": {\"N\": 1.0}, \"44\": {\"B\": 1.0}, \"45\": {\"N\": 1.0}, \"46\": {\"B\": 1.0}, \"47\": {\"N\": 1.0}, \"48\": {\"B\": 1.0}, \"49\": {\"N\": 1.0}}" energy=-418.2110898183122 free_energy=-418.2457471791143 dipole="-24.45339054182493 -6.439524243054777 -1.220348437731004e-10" magmom=0.0 pbc="T T T"
C       -0.00156585       0.00090301      20.00000000        0       0.00000000       0.00593699      -0.00342951       0.00000000
N       -0.00145057       1.39583806      20.00000000        1       0.00000000      -0.00817232       0.08239282       0.00000000
B       -1.24648816       2.14913890      20.00000000        2       0.00000000      -0.02522068       0.02593910       0.00000000
N       -1.24599333       3.59282373      20.00000000        3       0.00000000       0.00130729      -0.04103522       0.00000000
B       -2.50026104       4.32226975      20.00000000        4       0.00000000       0.03076343      -0.00712901       0.00000000
N       -2.50541581       5.76895898      20.00000000        5       0.00000000      -0.02796317      -0.01731888       0.00000000
B       -3.75549304       6.49774810      20.00000000        6       0.00000000       0.00772499       0.04002797       0.00000000
N       -3.76045895       7.95062810      20.00000000        7       0.00000000      -0.03715476       0.03241856       0.00000000
B       -5.01169807       8.67229330      20.00000000        8       0.00000000      -0.00233639      -0.03215622       0.00000000
N       -5.04372054      10.12886941      20.00000000        9       0.00000000       0.05885872      -0.03399336       0.00000000
B        2.48372754       0.00411396      20.00000000       10       0.00000000       0.02667747       0.01811553       0.00000000
N        2.50080033       1.44438961      20.00000000       11       0.00000000      -0.01798562      -0.00670234       0.00000000
B        1.24499672       2.14915813      20.00000000       12       0.00000000       0.02984704       0.01825672       0.00000000
N        1.24276483       3.59320345      20.00000000       13       0.00000000      -0.01949776      -0.03987405       0.00000000
B       -0.00121051       4.32679946      20.00000000       14       0.00000000      -0.00154648      -0.06214868       0.00000000
N       -0.00087147       5.77067114      20.00000000       15       0.00000000      -0.00174965      -0.08301249       0.00000000
B       -1.25195175       6.49365546      20.00000000       16       0.00000000      -0.00332860      -0.00106692       0.00000000
N       -1.25171678       7.93955385      20.00000000       17       0.00000000      -0.07094109       0.04096510       0.00000000
B       -2.50203143       8.66142846      20.00000000       18       0.00000000      -0.06093549       0.03518314       0.00000000
N       -2.51567890      10.10665145      20.00000000       19       0.00000000      -0.04665732       0.01595401       0.00000000
B        4.99504014       0.00348252      20.00000000       20       0.00000000      -0.03080502      -0.02670239       0.00000000
N        5.00179308       1.44563849      20.00000000       21       0.00000000      -0.02850104      -0.00463703       0.00000000
B        3.75013675       2.16436946      20.00000000       22       0.00000000      -0.03201776      -0.01968857       0.00000000
N        3.75246518       3.60763868      20.00000000       23       0.00000000      -0.02100364      -0.02713686       0.00000000
B        2.49975560       4.32295296      20.00000000       24       0.00000000      -0.03739568      -0.01402233       0.00000000
N        2.50503590       5.77059160      20.00000000       25       0.00000000       0.02572076      -0.01484578       0.00000000
B        1.25134120       6.49441793      20.00000000       26       0.00000000       0.00531584      -0.00307534       0.00000000
N        1.25201377       7.94073145      20.00000000       27       0.00000000       0.07101315       0.04301997       0.00000000
B        0.00035510       8.66271540      20.00000000       28       0.00000000      -0.00074167       0.00342978       0.00000000
N        0.00122427      10.11058816      20.00000000       29       0.00000000       0.00102104       0.03287415       0.00000000
B        7.50667620       0.00415921      20.00000000       30       0.00000000       0.02155816      -0.02306367       0.00000000
N        7.50048780       1.44581359      20.00000000       31       0.00000000       0.03654769      -0.00201278       0.00000000
B        6.25129040       2.16507668      20.00000000       32       0.00000000      -0.00252573      -0.01278385       0.00000000
N        6.25114012       3.60777851      20.00000000       33       0.00000000       0.00214060      -0.00123275       0.00000000
B        5.00126989       4.32939663      20.00000000       34       0.00000000      -0.01518839       0.00876926       0.00000000
N        5.00192371       5.77176425      20.00000000       35       0.00000000       0.01300443       0.03176232       0.00000000
B        3.75609263       6.49899212      20.00000000       36       0.00000000      -0.00654794       0.03938704       0.00000000
N        3.75957469       7.95244500      20.00000000       37       0.00000000       0.02478925       0.03681724       0.00000000
B        2.50227816       8.66296875      20.00000000       38       0.00000000       0.05305638       0.03242003       0.00000000
N        2.51552504      10.10796319      20.00000000       39       0.00000000       0.03618013       0.01937314       0.00000000
B       10.01554748       0.00492503      20.00000000       40       0.00000000      -0.03507069       0.00888211       0.00000000
N        9.99832086       1.44434217      20.00000000       41       0.00000000       0.01285459      -0.00741852       0.00000000
B        8.75100112       2.16448868      20.00000000       42       0.00000000       0.03093759      -0.01786360       0.00000000
N        8.74813047       3.60679426      20.00000000       43       0.00000000       0.02002554      -0.03063603       0.00000000
B        7.50063707       4.32900755      20.00000000       44       0.00000000       0.00980453       0.00857722       0.00000000
N        7.49893498       5.77081448      20.00000000       45       0.00000000      -0.01022994       0.02700779       0.00000000
B        6.25067222       6.49542304      20.00000000       46       0.00000000       0.00103884       0.03756641       0.00000000
N        6.24951953       7.93736246      20.00000000       47       0.00000000      -0.00318701       0.01892745       0.00000000
B        5.01127552       8.67254184      20.00000000       48       0.00000000      -0.00089188      -0.03497688       0.00000000
N        5.04044256      10.12865173      20.00000000       49       0.00000000      -0.07544457      -0.03413168       0.00000000
