50
Lattice="12.5 0.0 0.0 -6.250000000000001 10.825317547305481 0.0 0.0 0.0 40.0" Properties=species:S:1:pos:R:3:spacegroup_kinds:I:1:magmoms:R:1:forces:R:3 spacegroup="P 1" unit_cell=conventional occupancy="_JSON {\"0\": {\"B\": 1.0}, \"1\": {\"C\": 1.0}, \"2\": {\"B\": 1.0}, \"3\": {\"N\": 1.0}, \"4\": {\"B\": 1.0}, \"5\": {\"N\": 1.0}, \"6\": {\"B\": 1.0}, \"7\": {\"N\": 1.0}, \"8\": {\"B\": 1.0}, \"9\": {\"N\": 1.0}, \"10\": {\"B\": 1.0}, \"11\": {\"N\": 1.0}, \"12\": {\"B\": 1.0}, \"13\": {\"N\": 1.0}, \"14\": {\"B\": 1.0}, \"15\": {\"N\": 1.0}, \"16\": {\"B\": 1.0}, \"17\": {\"N\": 1.0}, \"18\": {\"B\": 1.0}, \"19\": {\"N\": 1.0}, \"20\": {\"B\": 1.0}, \"21\": {\"N\": 1.0}, \"22\": {\"B\": 1.0}, \"23\": {\"N\": 1.0}, \"24\": {\"B\": 1.0}, \"25\": {\"N\": 1.0}, \"26\": {\"B\": 1.0}, \"27\": {\"N\": 1.0}, \"28\": {\"B\": 1.0}, \"29\": {\"N\": 1.0}, \"30\": {\"B\": 1.0}, \"31\": {\"N\": 1.0}, \"32\": {\"B\": 1.0}, \"33\": {\"N\": 1.0}, \"34\": {\"B\": 1.0}, \"35\": {\"N\": 1.0}, \"36\": {\"B\": 1.0}, \"37\": {\"N\": 1.0}, \"38\": {\"B\": 1.0}, \"39\": {\"N\": 1.0}, \"40\": {\"B\": 1.0}, \"41\": {\"N\": 1.0}, \"42\": {\"B\": 1.0}, \"43\": {\"N\": 1.0}, \"44\": {\"B\": 1.0}, \"45\": {\"N\": 1.0}, \"46\": {\"B\": 1.0}, \"47\": {\"N\": 1.0}, \"48\": {\"B\": 1.0}, \"49\": {\"N\": 1.0}}" energy=-416.8069689662976 free_energy=-416.8416263275073 dipole="-21.05053598236403 -2.868657960598344 1.487299658484661e-10" magmom=0.0 pbc="T T T"
B       -0.00004822      -0.05013653      20.00000000        0       0.00000000       0.00850688      -0.01088004       0.00000000
C       -0.00001878       1.44373611      20.00000000        1       0.00000000       0.00902895       0.01211202       0.00000000
B       -1.29528323       2.18941015      20.00000000        2       0.00000000       0.00274169       0.01439652       0.00000000
N       -1.27189007       3.62688913      20.00000000        3       0.00000000       0.01448288      -0.00005633       0.00000000
B       -2.51350720       4.34025243      20.00000000        4       0.00000000      -0.00097505      -0.00478944       0.00000000
N       -2.50936670       5.77760179      20.00000000        5       0.00000000       0.00328292      -0.00872561       0.00000000
B       -3.75455065       6.49257189      20.00000000        6       0.00000000      -0.00207388       0.00207026       0.00000000
N       -3.74944804       7.93011427      20.00000000        7       0.00000000      -0.01564512       0.00463227       0.00000000
B       -4.99511159       8.64461120      20.00000000        8       0.00000000      -0.00906739       0.01019584       0.00000000
N       -4.99318630      10.07699607      20.00000000        9       0.00000000      -0.00768465       0.01980562       0.00000000
B        2.49839389       0.00087031      20.00000000       10       0.00000000       0.01083905       0.00424132       0.00000000
N        2.52983088       1.44948332      20.00000000       11       0.00000000      -0.00281771       0.00148617       0.00000000
B        1.29570737       2.18964348      20.00000000       12       0.00000000       0.01650638       0.01862529       0.00000000
N        1.27097699       3.62802585      20.00000000       13       0.00000000      -0.00012305       0.00370598       0.00000000
B       -0.00056261       4.32648890      20.00000000       14       0.00000000       0.00853891       0.01954506       0.00000000
N       -0.00096083       5.76981464      20.00000000       15       0.00000000       0.00226992       0.01186039       0.00000000
B       -1.25467140       6.49415960      20.00000000       16       0.00000000       0.00324180       0.02936233       0.00000000
N       -1.25274257       7.94020673      20.00000000       17       0.00000000       0.02194717       0.01441754       0.00000000
B       -2.50344778       8.66012660      20.00000000       18       0.00000000       0.01643276      -0.00236934       0.00000000
N       -2.50119195      10.10847992      20.00000000       19       0.00000000      -0.00404552       0.00174443       0.00000000
B        5.00175456       0.00500086      20.00000000       20       0.00000000       0.01858517      -0.00775702       0.00000000
N        5.01095789       1.44609298      20.00000000       21       0.00000000      -0.00846467       0.01139113       0.00000000
B        3.76932182       2.16677561      20.00000000       22       0.00000000      -0.01236060       0.00527207       0.00000000
N        3.75949449       3.60964641      20.00000000       23       0.00000000       0.03061956       0.02632626       0.00000000
B        2.51381028       4.34138050      20.00000000       24       0.00000000       0.01378292       0.00166165       0.00000000
N        2.50901037       5.77982838      20.00000000       25       0.00000000       0.00060089       0.00051609       0.00000000
B        1.25395152       6.49499651      20.00000000       26       0.00000000      -0.00257005       0.03303400       0.00000000
N        1.25298642       7.94149721      20.00000000       27       0.00000000      -0.02146219       0.01832220       0.00000000
B        0.00034479       8.66386266      20.00000000       28       0.00000000      -0.00019289       0.00233096       0.00000000
N        0.00125924      10.11116865      20.00000000       29       0.00000000       0.00294950      -0.03067223       0.00000000
B        7.50010928       0.00559136      20.00000000       30       0.00000000      -0.01348804      -0.00913500       0.00000000
N        7.49218306       1.44614510      20.00000000       31       0.00000000       0.02426259       0.01274156       0.00000000
B        6.25146879       2.16743737      20.00000000       32       0.00000000       0.00871652       0.00691960       0.00000000
N        6.25120780       3.60818016      20.00000000       33       0.00000000       0.00455394       0.01600279       0.00000000
B        5.00506147       4.33032708      20.00000000       34       0.00000000       0.03748832       0.01529463       0.00000000
N        5.00413510       5.77105265      20.00000000       35       0.00000000       0.00551213       0.00450007       0.00000000
B        3.75533246       6.49398090      20.00000000       36       0.00000000       0.00552269       0.00702361       0.00000000
N        3.74907295       7.93210048      20.00000000       37       0.00000000       0.01947729       0.01244045       0.00000000
B        2.50379241       8.66152754      20.00000000       38       0.00000000      -0.01371772      -0.00054063       0.00000000
N        2.50188143      10.10976158      20.00000000       39       0.00000000       0.01315949       0.00339737       0.00000000
B       10.00186166       0.00179963      20.00000000       40       0.00000000       0.00243511       0.00142845       0.00000000
N        9.97133050       1.44955293      20.00000000       41       0.00000000       0.02266421       0.00172102       0.00000000
B        8.73277560       2.16667058      20.00000000       42       0.00000000       0.02667756       0.00386645       0.00000000
N        8.74169927       3.60868567      20.00000000       43       0.00000000      -0.01559446       0.02030996       0.00000000
B        7.49690382       4.32991191      20.00000000       44       0.00000000      -0.02849145       0.01152667       0.00000000
N        7.49682712       5.77012706      20.00000000       45       0.00000000      -0.00184293       0.00217167       0.00000000
B        6.25066044       6.49218587      20.00000000       46       0.00000000       0.00092918      -0.03132292       0.00000000
N        6.24948133       7.93282360      20.00000000       47       0.00000000       0.00142053      -0.02619070       0.00000000
B        4.99505619       8.64595033      20.00000000       48       0.00000000       0.01552519       0.01100932       0.00000000
N        4.99223261      10.07848224      20.00000000       49       0.00000000       0.01963584       0.02351785       0.00000000
