
  ___ ___ ___ _ _ _  
 |   |   |_  | | | | 
 | | | | | . | | | | 
 |__ |  _|___|_____|  25.1.0
 |___|_|             

User:   denniswayo@Delas-MacBook-Pro.local
Date:   Mon Dec 15 14:58:19 2025
Arch:   x86_64
Pid:    37091
CWD:    /Users/denniswayo/gpaw-DFT/emitter2chip
Python: 3.9.22
gpaw:   /Users/denniswayo/miniforge-x86_64/envs/gpaw-tddft-legacy/lib/python3.9/site-packages/gpaw
_gpaw:  /Users/denniswayo/miniforge-x86_64/envs/gpaw-tddft-legacy/lib/python3.9/site-packages/
        _gpaw.cpython-39-darwin.so
ase:    /Users/denniswayo/miniforge-x86_64/envs/gpaw-tddft-legacy/lib/python3.9/site-packages/ase (version 3.25.0)
numpy:  /Users/denniswayo/miniforge-x86_64/envs/gpaw-tddft-legacy/lib/python3.9/site-packages/numpy (version 1.26.4)
scipy:  /Users/denniswayo/miniforge-x86_64/envs/gpaw-tddft-legacy/lib/python3.9/site-packages/scipy (version 1.13.1)
libxc:  5.1.7
units:  Angstrom and eV
cores: 1
OpenMP: False
OMP_NUM_THREADS: 1

Input parameters:
  basis: dzp
  kpts: [1 1 1]
  mode: lcao
  occupations: {fixmagmom: False,
                name: fermi-dirac,
                width: 0.05}
  spinpol: False
  symmetry: off
  xc: PBE

System changes: positions, numbers, cell, pbc, initial_charges, initial_magmoms 

Initialize ...

species:
  B:
    name: Boron
    id: 6e91439235a05fd7549e31636e8f777c
    Z: 5.0
    valence: 3
    core: 2
    charge: 0.0
    file: /Users/denniswayo/miniforge-x86_64/envs/gpaw-tddft-legacy/lib/python3.9/site-packages/gpaw_data/setups/gpaw-setups-0.9.20000/B.PBE.gz
    compensation charges: {type: gauss,
                           rc: 0.20,
                           lmax: 2}
    cutoffs: {filter: 1.14,
              core: 1.38}
    projectors:
      #              energy  rcut
      - 2s(2.00)    -9.443   0.635
      - 2p(1.00)    -3.606   0.635
      -  s          17.768   0.635
      -  p          23.605   0.635
      -  d           0.000   0.635
  
    # LCAO basis set for B:
    #   Name: dzp
    #   File: /Users/denniswayo/miniforge-x86_64/envs/gpaw-tddft-legacy/lib/python3.9/site-packages/gpaw_data/setups/gpaw-setups-0.9.20000/B.dzp.basis.gz
    #   Number of radial functions: 5
    #   Number of spherical harmonics: 13
    #     l=0, rc=6.6719 Bohr: 2s-sz confined orbital
    #     l=1, rc=8.2188 Bohr: 2p-sz confined orbital
    #     l=0, rc=3.7500 Bohr: 2s-dz split-valence wave
    #     l=1, rc=4.6094 Bohr: 2p-dz split-valence wave
    #     l=2, rc=8.2188 Bohr: d-type Gaussian polarization
    #   Number of RI-basis functions 0

  C:
    name: Carbon
    id: 4aa54d4b901d75f77cc0ea3eec22967b
    Z: 6.0
    valence: 4
    core: 2
    charge: 0.0
    file: /Users/denniswayo/miniforge-x86_64/envs/gpaw-tddft-legacy/lib/python3.9/site-packages/gpaw_data/setups/gpaw-setups-0.9.20000/C.PBE.gz
    compensation charges: {type: gauss,
                           rc: 0.20,
                           lmax: 2}
    cutoffs: {filter: 1.14,
              core: 1.14}
    projectors:
      #              energy  rcut
      - 2s(2.00)   -13.751   0.635
      - 2p(2.00)    -5.284   0.635
      -  s          13.461   0.635
      -  p          21.927   0.635
      -  d           0.000   0.635
  
    # LCAO basis set for C:
    #   Name: dzp
    #   File: /Users/denniswayo/miniforge-x86_64/envs/gpaw-tddft-legacy/lib/python3.9/site-packages/gpaw_data/setups/gpaw-setups-0.9.20000/C.dzp.basis.gz
    #   Number of radial functions: 5
    #   Number of spherical harmonics: 13
    #     l=0, rc=5.5469 Bohr: 2s-sz confined orbital
    #     l=1, rc=6.6719 Bohr: 2p-sz confined orbital
    #     l=0, rc=3.0312 Bohr: 2s-dz split-valence wave
    #     l=1, rc=3.7500 Bohr: 2p-dz split-valence wave
    #     l=2, rc=6.6719 Bohr: d-type Gaussian polarization
    #   Number of RI-basis functions 0

  N:
    name: Nitrogen
    id: f7500608b86eaa90eef8b1d9a670dc53
    Z: 7.0
    valence: 5
    core: 2
    charge: 0.0
    file: /Users/denniswayo/miniforge-x86_64/envs/gpaw-tddft-legacy/lib/python3.9/site-packages/gpaw_data/setups/gpaw-setups-0.9.20000/N.PBE.gz
    compensation charges: {type: gauss,
                           rc: 0.18,
                           lmax: 2}
    cutoffs: {filter: 1.11,
              core: 0.96}
    projectors:
      #              energy  rcut
      - 2s(2.00)   -18.583   0.603
      - 2p(3.00)    -7.089   0.529
      -  s           8.629   0.603
      -  p          20.123   0.529
      -  d           0.000   0.577
  
    # LCAO basis set for N:
    #   Name: dzp
    #   File: /Users/denniswayo/miniforge-x86_64/envs/gpaw-tddft-legacy/lib/python3.9/site-packages/gpaw_data/setups/gpaw-setups-0.9.20000/N.dzp.basis.gz
    #   Number of radial functions: 5
    #   Number of spherical harmonics: 13
    #     l=0, rc=4.8594 Bohr: 2s-sz confined orbital
    #     l=1, rc=6.0625 Bohr: 2p-sz confined orbital
    #     l=0, rc=2.6094 Bohr: 2s-dz split-valence wave
    #     l=1, rc=3.2656 Bohr: 2p-dz split-valence wave
    #     l=2, rc=6.0625 Bohr: d-type Gaussian polarization
    #   Number of RI-basis functions 0

Reference energy: -53326.183398  # eV

Spin-paired calculation

Convergence criteria:
 Maximum [total energy] change in last 3 cyles: 0.0005 eV / valence electron
 Maximum integral of absolute [dens]ity change: 0.0001 electrons / valence electron
 Maximum integral of absolute [eigenst]ate change: 4e-08 eV^2 / valence electron
 Maximum number of scf [iter]ations: 333
 (Square brackets indicate name in SCF output, whereas a 'c' in
 the SCF output indicates the quantity has converged.)

Symmetries present (total): 1

  ( 1  0  0)
  ( 0  1  0)
  ( 0  0  1)

1 k-point (Gamma)
1 k-point in the irreducible part of the Brillouin zone
       k-points in crystal coordinates                weights
   0:     0.00000000    0.00000000    0.00000000          1/1

Wave functions: LCAO
  Diagonalizer: Serial LAPACK
  Atomic Correction: dense with blas
  Data-type: float
 

Occupation numbers: Fermi-Dirac:
  width: 0.0500  # eV
 

Eigensolver
   LCAO using direct dense diagonalizer 

Densities:
  Coarse grid: 56*56*200 grid
  Fine grid: 112*112*400 grid
  Total Charge: 0.000000 

Density mixing:
  Method: separate
  Backend: pulay
  Linear mixing parameter: 0.05
  old densities: 5
  Damping of long wavelength oscillations: 50 

Hamiltonian:
  XC and Coulomb potentials evaluated on a 112*112*400 grid
  Using the PBE Exchange-Correlation functional
  Interpolation: tri-quintic (5. degree polynomial)
  Poisson solver: FastPoissonSolver using
    Stencil: 8*3+1=25 point O(h^6) finite-difference Laplacian
    FFT axes: [0, 1, 2]
    FST axes: []
 

XC parameters: PBE with 2 nearest neighbor stencil

Memory estimate:
  Process memory now: 1932.24 MiB
  Calculator: 386.81 MiB
    Density: 198.03 MiB
      Arrays: 124.41 MiB
      Localized functions: 25.77 MiB
      Mixer: 47.85 MiB
    Hamiltonian: 83.46 MiB
      Arrays: 81.35 MiB
      XC: 0.00 MiB
      Poisson: 0.00 MiB
      vbar: 2.12 MiB
    Wavefunctions: 105.32 MiB
      C [qnM]: 0.61 MiB
      S, T [2 x qmm]: 6.45 MiB
      P [aqMi]: 0.40 MiB
      BasisFunctions: 97.85 MiB
      Eigensolver: 0.00 MiB

Total number of cores used: 1

Number of atoms: 50
Number of atomic orbitals: 650
Number of bands in calculation: 124
Number of valence electrons: 199
Bands to converge: occupied

... initialized

Initializing position-dependent things.

Density initialized from atomic densities
                                                            
                                                            
                                                            
                                                            
              N     N     N     N     N                     
             B N   B  N  B  N  B  N  B  N                   
              B      B     B     B     B                    
                BN    BN     B     BN    BN                 
                   N     N     N     N      N               
                  B  C  B  N  B  N  B  N   B N              
                    B     B     B     B     B               
                                                            
                                                            
                                                            
                                                            

Positions:
   0 B      0.000000    0.000000   20.000000    ( 0.0000,  0.0000,  0.0000)
   1 C     -0.000000    1.443376   20.000000    ( 0.0000,  0.0000,  0.0000)
   2 B     -1.250000    2.165064   20.000000    ( 0.0000,  0.0000,  0.0000)
   3 N     -1.250000    3.608439   20.000000    ( 0.0000,  0.0000,  0.0000)
   4 B     -2.500000    4.330127   20.000000    ( 0.0000,  0.0000,  0.0000)
   5 N     -2.500000    5.773503   20.000000    ( 0.0000,  0.0000,  0.0000)
   6 B     -3.750000    6.495191   20.000000    ( 0.0000,  0.0000,  0.0000)
   7 N     -3.750000    7.938566   20.000000    ( 0.0000,  0.0000,  0.0000)
   8 B     -5.000000    8.660254   20.000000    ( 0.0000,  0.0000,  0.0000)
   9 N     -5.000000   10.103630   20.000000    ( 0.0000,  0.0000,  0.0000)
  10 B      2.500000    0.000000   20.000000    ( 0.0000,  0.0000,  0.0000)
  11 N      2.500000    1.443376   20.000000    ( 0.0000,  0.0000,  0.0000)
  12 B      1.250000    2.165064   20.000000    ( 0.0000,  0.0000,  0.0000)
  13 N      1.250000    3.608439   20.000000    ( 0.0000,  0.0000,  0.0000)
  14 B     -0.000000    4.330127   20.000000    ( 0.0000,  0.0000,  0.0000)
  15 N     -0.000000    5.773503   20.000000    ( 0.0000,  0.0000,  0.0000)
  16 B     -1.250000    6.495191   20.000000    ( 0.0000,  0.0000,  0.0000)
  17 N     -1.250000    7.938566   20.000000    ( 0.0000,  0.0000,  0.0000)
  18 B     -2.500000    8.660254   20.000000    ( 0.0000,  0.0000,  0.0000)
  19 N     -2.500000   10.103630   20.000000    ( 0.0000,  0.0000,  0.0000)
  20 B      5.000000    0.000000   20.000000    ( 0.0000,  0.0000,  0.0000)
  21 N      5.000000    1.443376   20.000000    ( 0.0000,  0.0000,  0.0000)
  22 B      3.750000    2.165064   20.000000    ( 0.0000,  0.0000,  0.0000)
  23 N      3.750000    3.608439   20.000000    ( 0.0000,  0.0000,  0.0000)
  24 B      2.500000    4.330127   20.000000    ( 0.0000,  0.0000,  0.0000)
  25 N      2.500000    5.773503   20.000000    ( 0.0000,  0.0000,  0.0000)
  26 B      1.250000    6.495191   20.000000    ( 0.0000,  0.0000,  0.0000)
  27 N      1.250000    7.938566   20.000000    ( 0.0000,  0.0000,  0.0000)
  28 B     -0.000000    8.660254   20.000000    ( 0.0000,  0.0000,  0.0000)
  29 N     -0.000000   10.103630   20.000000    ( 0.0000,  0.0000,  0.0000)
  30 B      7.500000    0.000000   20.000000    ( 0.0000,  0.0000,  0.0000)
  31 N      7.500000    1.443376   20.000000    ( 0.0000,  0.0000,  0.0000)
  32 B      6.250000    2.165064   20.000000    ( 0.0000,  0.0000,  0.0000)
  33 N      6.250000    3.608439   20.000000    ( 0.0000,  0.0000,  0.0000)
  34 B      5.000000    4.330127   20.000000    ( 0.0000,  0.0000,  0.0000)
  35 N      5.000000    5.773503   20.000000    ( 0.0000,  0.0000,  0.0000)
  36 B      3.750000    6.495191   20.000000    ( 0.0000,  0.0000,  0.0000)
  37 N      3.750000    7.938566   20.000000    ( 0.0000,  0.0000,  0.0000)
  38 B      2.500000    8.660254   20.000000    ( 0.0000,  0.0000,  0.0000)
  39 N      2.500000   10.103630   20.000000    ( 0.0000,  0.0000,  0.0000)
  40 B     10.000000    0.000000   20.000000    ( 0.0000,  0.0000,  0.0000)
  41 N     10.000000    1.443376   20.000000    ( 0.0000,  0.0000,  0.0000)
  42 B      8.750000    2.165064   20.000000    ( 0.0000,  0.0000,  0.0000)
  43 N      8.750000    3.608439   20.000000    ( 0.0000,  0.0000,  0.0000)
  44 B      7.500000    4.330127   20.000000    ( 0.0000,  0.0000,  0.0000)
  45 N      7.500000    5.773503   20.000000    ( 0.0000,  0.0000,  0.0000)
  46 B      6.250000    6.495191   20.000000    ( 0.0000,  0.0000,  0.0000)
  47 N      6.250000    7.938566   20.000000    ( 0.0000,  0.0000,  0.0000)
  48 B      5.000000    8.660254   20.000000    ( 0.0000,  0.0000,  0.0000)
  49 N      5.000000   10.103630   20.000000    ( 0.0000,  0.0000,  0.0000)

Unit cell:
           periodic     x           y           z      points  spacing
  1. axis:    yes   12.500000    0.000000    0.000000    56     0.1933
  2. axis:    yes   -6.250000   10.825318    0.000000    56     0.1933
  3. axis:    yes    0.000000    0.000000   40.000000   200     0.2000

  Lengths:  12.500000  12.500000  40.000000
  Angles:   90.000000  90.000000 120.000000

Effective grid spacing dv^(1/3) = 0.2051

     iter     time        total  log10-change:
                         energy   eigst   dens
iter:   1 14:58:29  -438.815493        c
iter:   2 14:58:36  -434.094661        c -0.76
iter:   3 14:58:41  -417.630345        c -0.80
iter:   4 14:58:46  -416.819074        c -1.19
iter:   5 14:58:51  -416.629498        c -1.56
iter:   6 14:58:56  -416.584814        c -1.98
iter:   7 14:59:01  -416.587595c       c -2.38
iter:   8 14:59:06  -416.574184c       c -2.47
iter:   9 14:59:11  -416.574031c       c -3.35
iter:  10 14:59:16  -416.573674c       c -3.43
iter:  11 14:59:21  -416.573668c       c -3.74
iter:  12 14:59:26  -416.573647c       c -3.79
iter:  13 14:59:31  -416.573646c       c -4.04c

Converged after 13 iterations.

Dipole moment: (-24.968029, -5.195726, 0.000000) |e|*Ang

Energy contributions relative to reference atoms: (reference = -53326.183398)

Kinetic:       +414.292812
Potential:     -414.473482
External:        +0.000000
XC:            -432.170891
Entropy (-ST):   -0.069315
Local:          +15.812573
SIC:             +0.000000
--------------------------
Free energy:   -416.608303
Extrapolated:  -416.573646

 Band  Eigenvalues  Occupancy
    0    -22.70014    2.00000
    1    -22.04463    2.00000
    2    -22.00633    2.00000
    3    -22.00618    2.00000
    4    -21.94838    2.00000
    5    -21.94825    2.00000
    6    -21.58396    2.00000
    7    -20.66637    2.00000
    8    -20.66631    2.00000
    9    -20.62797    2.00000
   10    -20.61939    2.00000
   11    -20.61936    2.00000
   12    -20.46127    2.00000
   13    -20.22532    2.00000
   14    -20.14178    2.00000
   15    -20.14159    2.00000
   16    -20.11682    2.00000
   17    -20.11644    2.00000
   18    -19.74825    2.00000
   19    -19.36437    2.00000
   20    -19.36407    2.00000
   21    -19.32202    2.00000
   22    -19.32171    2.00000
   23    -19.22359    2.00000
   24    -15.99870    2.00000
   25    -13.53720    2.00000
   26    -13.51345    2.00000
   27    -13.46725    2.00000
   28    -13.46683    2.00000
   29    -13.41667    2.00000
   30    -13.41616    2.00000
   31    -13.14106    2.00000
   32    -13.14045    2.00000
   33    -13.06576    2.00000
   34    -12.98655    2.00000
   35    -12.86349    2.00000
   36    -12.86306    2.00000
   37    -11.53393    2.00000
   38    -11.52432    2.00000
   39    -11.52313    2.00000
   40    -11.41079    2.00000
   41    -11.40963    2.00000
   42    -11.27124    2.00000
   43    -10.96304    2.00000
   44    -10.94401    2.00000
   45    -10.92927    2.00000
   46    -10.92863    2.00000
   47    -10.76928    2.00000
   48    -10.76876    2.00000
   49    -10.21333    2.00000
   50     -9.77603    2.00000
   51     -9.77296    2.00000
   52     -9.72325    2.00000
   53     -9.72240    2.00000
   54     -9.63502    2.00000
   55     -9.63426    2.00000
   56     -9.27610    2.00000
   57     -9.24211    2.00000
   58     -9.24185    2.00000
   59     -9.19253    2.00000
   60     -9.19228    2.00000
   61     -9.04126    2.00000
   62     -9.04094    2.00000
   63     -9.03543    2.00000
   64     -8.99653    2.00000
   65     -8.98529    2.00000
   66     -8.98472    2.00000
   67     -8.95272    2.00000
   68     -8.95180    2.00000
   69     -8.92503    2.00000
   70     -8.87573    2.00000
   71     -8.74588    2.00000
   72     -8.39852    2.00000
   73     -8.39780    2.00000
   74     -7.55801    2.00000
   75     -7.54089    2.00000
   76     -7.53978    2.00000
   77     -7.51916    2.00000
   78     -7.37795    2.00000
   79     -7.37791    2.00000
   80     -7.34477    2.00000
   81     -7.33721    2.00000
   82     -7.33713    2.00000
   83     -7.17403    2.00000
   84     -6.99341    2.00000
   85     -6.99207    2.00000
   86     -6.69571    2.00000
   87     -6.63321    2.00000
   88     -6.63312    2.00000
   89     -6.60044    2.00000
   90     -6.60029    2.00000
   91     -6.27912    2.00000
   92     -5.93440    2.00000
   93     -5.93296    2.00000
   94     -5.37948    2.00000
   95     -5.37915    2.00000
   96     -5.33700    2.00000
   97     -5.33671    2.00000
   98     -5.27046    2.00000
   99     -4.44230    1.00000
  100     -0.14171    0.00000
  101     -0.12454    0.00000
  102     -0.12447    0.00000
  103     -0.09730    0.00000
  104      0.00582    0.00000
  105      0.00593    0.00000
  106      0.97026    0.00000
  107      0.97034    0.00000
  108      0.97652    0.00000
  109      1.07071    0.00000
  110      1.07080    0.00000
  111      1.16389    0.00000
  112      2.29709    0.00000
  113      2.29715    0.00000
  114      2.31382    0.00000
  115      2.35802    0.00000
  116      2.35814    0.00000
  117      2.66217    0.00000
  118      3.30485    0.00000
  119      3.57797    0.00000
  120      3.59836    0.00000
  121      3.59996    0.00000
  122      3.65824    0.00000
  123      3.65974    0.00000

Fermi level: -4.44230

Gap: 4.301 eV
Transition (v -> c):
  (s=0, k=0, n=99, [0.00, 0.00, 0.00]) -> (s=0, k=0, n=100, [0.00, 0.00, 0.00])
No difference between direct/indirect transitions

Forces in eV/Ang:
  0 B     0.01184   -2.34817    0.00000
  1 C    -0.01576    0.00369    0.00000
  2 B    -2.01479    1.16223    0.00000
  3 N    -0.66373    0.28390    0.00000
  4 B     0.19230    0.01822    0.00000
  5 N    -0.23116   -0.06369    0.00000
  6 B     0.07538    0.02856    0.00000
  7 N    -0.09047   -0.11066    0.00000
  8 B     0.11810    0.14552    0.00000
  9 N     0.01156   -0.61945    0.00000
 10 B    -0.08405    0.04321    0.00000
 11 N     0.58333    0.26390    0.00000
 12 B     2.03486    1.15968    0.00000
 13 N     0.57136    0.30007    0.00000
 14 B     0.01152   -0.10445    0.00000
 15 N    -0.03121   -0.16399    0.00000
 16 B    -0.09968   -0.00012    0.00000
 17 N    -0.10191    0.03229    0.00000
 18 B    -0.04762   -0.10389    0.00000
 19 N    -0.08864    0.16846    0.00000
 20 B     0.07129    0.09107    0.00000
 21 N     0.12135    0.11932    0.00000
 22 B    -0.07207   -0.17984    0.00000
 23 N     0.12628   -0.04435    0.00000
 24 B    -0.17010    0.01907    0.00000
 25 N     0.19663   -0.01506    0.00000
 26 B     0.12267    0.00004    0.00000
 27 N     0.09553    0.06449    0.00000
 28 B     0.01156   -0.00885    0.00000
 29 N     0.02473    0.26197    0.00000
 30 B    -0.04853    0.09051    0.00000
 31 N    -0.06324    0.12344    0.00000
 32 B     0.01108   -0.08408    0.00000
 33 N     0.03323    0.00400    0.00000
 34 B     0.04113    0.01752    0.00000
 35 N     0.12120   -0.07397    0.00000
 36 B    -0.05426    0.02872    0.00000
 37 N     0.06282   -0.05788    0.00000
 38 B     0.06981   -0.10426    0.00000
 39 N     0.08950    0.20548    0.00000
 40 B     0.10568    0.04223    0.00000
 41 N    -0.63613    0.26949    0.00000
 42 B     0.09426   -0.18105    0.00000
 43 N    -0.12133   -0.07112    0.00000
 44 B    -0.02009    0.01698    0.00000
 45 N    -0.10924   -0.10469    0.00000
 46 B     0.01006   -0.03308    0.00000
 47 N    -0.02106   -0.00152    0.00000
 48 B    -0.09801    0.14556    0.00000
 49 N    -0.09302   -0.59665    0.00000

System changes: positions 

Initializing position-dependent things.

Density initialized from wave functions
                                                            
                                                            
                                                            
                                                            
              N     N     N     N     N                     
             B N   B  N  B  N  B  N  B  N                   
              B      B     B     B     B                    
                BN    BN     B     BN    BN                 
                   N     N     N     N      N               
                  B  C  B  N  B  N  B  N   B N              
                    B     B     B     B     B               
                                                            
                                                            
                                                            
                                                            

Positions:
   0 B      0.000169   -0.033545   20.000000    ( 0.0000,  0.0000,  0.0000)
   1 C     -0.000225    1.443428   20.000000    ( 0.0000,  0.0000,  0.0000)
   2 B     -1.278783    2.181667   20.000000    ( 0.0000,  0.0000,  0.0000)
   3 N     -1.259482    3.612495   20.000000    ( 0.0000,  0.0000,  0.0000)
   4 B     -2.497253    4.330387   20.000000    ( 0.0000,  0.0000,  0.0000)
   5 N     -2.503302    5.772593   20.000000    ( 0.0000,  0.0000,  0.0000)
   6 B     -3.748923    6.495599   20.000000    ( 0.0000,  0.0000,  0.0000)
   7 N     -3.751292    7.936985   20.000000    ( 0.0000,  0.0000,  0.0000)
   8 B     -4.998313    8.662333   20.000000    ( 0.0000,  0.0000,  0.0000)
   9 N     -4.999835   10.094780   20.000000    ( 0.0000,  0.0000,  0.0000)
  10 B      2.498799    0.000617   20.000000    ( 0.0000,  0.0000,  0.0000)
  11 N      2.508333    1.447146   20.000000    ( 0.0000,  0.0000,  0.0000)
  12 B      1.279069    2.181630   20.000000    ( 0.0000,  0.0000,  0.0000)
  13 N      1.258162    3.612726   20.000000    ( 0.0000,  0.0000,  0.0000)
  14 B      0.000165    4.328635   20.000000    ( 0.0000,  0.0000,  0.0000)
  15 N     -0.000446    5.771160   20.000000    ( 0.0000,  0.0000,  0.0000)
  16 B     -1.251424    6.495189   20.000000    ( 0.0000,  0.0000,  0.0000)
  17 N     -1.251456    7.939027   20.000000    ( 0.0000,  0.0000,  0.0000)
  18 B     -2.500680    8.658770   20.000000    ( 0.0000,  0.0000,  0.0000)
  19 N     -2.501266   10.106036   20.000000    ( 0.0000,  0.0000,  0.0000)
  20 B      5.001018    0.001301   20.000000    ( 0.0000,  0.0000,  0.0000)
  21 N      5.001734    1.445080   20.000000    ( 0.0000,  0.0000,  0.0000)
  22 B      3.748970    2.162494   20.000000    ( 0.0000,  0.0000,  0.0000)
  23 N      3.751804    3.607806   20.000000    ( 0.0000,  0.0000,  0.0000)
  24 B      2.497570    4.330400   20.000000    ( 0.0000,  0.0000,  0.0000)
  25 N      2.502809    5.773288   20.000000    ( 0.0000,  0.0000,  0.0000)
  26 B      1.251752    6.495191   20.000000    ( 0.0000,  0.0000,  0.0000)
  27 N      1.251365    7.939488   20.000000    ( 0.0000,  0.0000,  0.0000)
  28 B      0.000165    8.660128   20.000000    ( 0.0000,  0.0000,  0.0000)
  29 N      0.000353   10.107372   20.000000    ( 0.0000,  0.0000,  0.0000)
  30 B      7.499307    0.001293   20.000000    ( 0.0000,  0.0000,  0.0000)
  31 N      7.499097    1.445139   20.000000    ( 0.0000,  0.0000,  0.0000)
  32 B      6.250158    2.163862   20.000000    ( 0.0000,  0.0000,  0.0000)
  33 N      6.250475    3.608496   20.000000    ( 0.0000,  0.0000,  0.0000)
  34 B      5.000588    4.330377   20.000000    ( 0.0000,  0.0000,  0.0000)
  35 N      5.001731    5.772446   20.000000    ( 0.0000,  0.0000,  0.0000)
  36 B      3.749225    6.495601   20.000000    ( 0.0000,  0.0000,  0.0000)
  37 N      3.750897    7.937739   20.000000    ( 0.0000,  0.0000,  0.0000)
  38 B      2.500997    8.658765   20.000000    ( 0.0000,  0.0000,  0.0000)
  39 N      2.501279   10.106565   20.000000    ( 0.0000,  0.0000,  0.0000)
  40 B     10.001510    0.000603   20.000000    ( 0.0000,  0.0000,  0.0000)
  41 N      9.990912    1.447226   20.000000    ( 0.0000,  0.0000,  0.0000)
  42 B      8.751347    2.162477   20.000000    ( 0.0000,  0.0000,  0.0000)
  43 N      8.748267    3.607423   20.000000    ( 0.0000,  0.0000,  0.0000)
  44 B      7.499713    4.330370   20.000000    ( 0.0000,  0.0000,  0.0000)
  45 N      7.498439    5.772007   20.000000    ( 0.0000,  0.0000,  0.0000)
  46 B      6.250144    6.494718   20.000000    ( 0.0000,  0.0000,  0.0000)
  47 N      6.249699    7.938545   20.000000    ( 0.0000,  0.0000,  0.0000)
  48 B      4.998600    8.662333   20.000000    ( 0.0000,  0.0000,  0.0000)
  49 N      4.998671   10.095106   20.000000    ( 0.0000,  0.0000,  0.0000)

Unit cell:
           periodic     x           y           z      points  spacing
  1. axis:    yes   12.500000    0.000000    0.000000    56     0.1933
  2. axis:    yes   -6.250000   10.825318    0.000000    56     0.1933
  3. axis:    yes    0.000000    0.000000   40.000000   200     0.2000

  Lengths:  12.500000  12.500000  40.000000
  Angles:   90.000000  90.000000 120.000000

Effective grid spacing dv^(1/3) = 0.2051

     iter     time        total  log10-change:
                         energy   eigst   dens
iter:   1 14:59:46  -416.768119        c
iter:   2 14:59:51  -416.761375        c -2.63
iter:   3 14:59:55  -416.744399c       c -2.69
iter:   4 15:00:00  -416.743842c       c -3.08
iter:   5 15:00:04  -416.743849c       c -3.39
iter:   6 15:00:09  -416.743798c       c -3.55
iter:   7 15:00:14  -416.743772c       c -3.96
iter:   8 15:00:18  -416.743770c       c -4.32c

Converged after 8 iterations.

Dipole moment: (-24.161253, -3.121754, 0.000000) |e|*Ang

Energy contributions relative to reference atoms: (reference = -53326.183398)

Kinetic:       +414.385308
Potential:     -414.664339
External:        +0.000000
XC:            -432.304402
Entropy (-ST):   -0.069315
Local:          +15.874321
SIC:             +0.000000
--------------------------
Free energy:   -416.778427
Extrapolated:  -416.743770

 Band  Eigenvalues  Occupancy
    0    -22.70001    2.00000
    1    -22.02053    2.00000
    2    -22.00754    2.00000
    3    -22.00315    2.00000
    4    -21.97569    2.00000
    5    -21.97175    2.00000
    6    -21.62326    2.00000
    7    -20.66951    2.00000
    8    -20.66883    2.00000
    9    -20.65540    2.00000
   10    -20.63024    2.00000
   11    -20.62791    2.00000
   12    -20.45529    2.00000
   13    -20.20453    2.00000
   14    -20.17590    2.00000
   15    -20.17181    2.00000
   16    -20.14115    2.00000
   17    -20.13733    2.00000
   18    -19.71771    2.00000
   19    -19.35968    2.00000
   20    -19.35724    2.00000
   21    -19.32310    2.00000
   22    -19.32043    2.00000
   23    -19.31642    2.00000
   24    -15.77541    2.00000
   25    -13.51408    2.00000
   26    -13.51134    2.00000
   27    -13.50026    2.00000
   28    -13.49528    2.00000
   29    -13.40440    2.00000
   30    -13.40294    2.00000
   31    -13.13624    2.00000
   32    -13.13330    2.00000
   33    -13.11003    2.00000
   34    -12.96158    2.00000
   35    -12.85989    2.00000
   36    -12.85852    2.00000
   37    -11.55012    2.00000
   38    -11.54896    2.00000
   39    -11.53488    2.00000
   40    -11.42089    2.00000
   41    -11.41985    2.00000
   42    -11.24817    2.00000
   43    -10.98688    2.00000
   44    -10.93413    2.00000
   45    -10.92948    2.00000
   46    -10.91807    2.00000
   47    -10.75796    2.00000
   48    -10.75166    2.00000
   49    -10.21310    2.00000
   50     -9.81391    2.00000
   51     -9.75853    2.00000
   52     -9.73901    2.00000
   53     -9.73817    2.00000
   54     -9.62503    2.00000
   55     -9.62126    2.00000
   56     -9.25482    2.00000
   57     -9.24335    2.00000
   58     -9.23974    2.00000
   59     -9.21577    2.00000
   60     -9.21256    2.00000
   61     -9.02381    2.00000
   62     -9.02007    2.00000
   63     -9.01094    2.00000
   64     -9.00951    2.00000
   65     -9.00624    2.00000
   66     -9.00340    2.00000
   67     -8.99407    2.00000
   68     -8.99127    2.00000
   69     -8.93809    2.00000
   70     -8.93014    2.00000
   71     -8.75883    2.00000
   72     -8.34639    2.00000
   73     -8.34318    2.00000
   74     -7.59094    2.00000
   75     -7.55753    2.00000
   76     -7.55220    2.00000
   77     -7.51864    2.00000
   78     -7.37777    2.00000
   79     -7.37734    2.00000
   80     -7.36742    2.00000
   81     -7.34829    2.00000
   82     -7.34718    2.00000
   83     -7.15008    2.00000
   84     -6.91690    2.00000
   85     -6.90318    2.00000
   86     -6.67683    2.00000
   87     -6.64713    2.00000
   88     -6.64073    2.00000
   89     -6.62822    2.00000
   90     -6.62202    2.00000
   91     -6.22273    2.00000
   92     -5.88083    2.00000
   93     -5.87347    2.00000
   94     -5.38178    2.00000
   95     -5.37911    2.00000
   96     -5.32882    2.00000
   97     -5.32611    2.00000
   98     -5.32243    2.00000
   99     -4.31189    1.00000
  100     -0.13049    0.00000
  101     -0.12192    0.00000
  102     -0.10433    0.00000
  103     -0.10082    0.00000
  104      0.00139    0.00000
  105      0.00239    0.00000
  106      0.95537    0.00000
  107      0.97584    0.00000
  108      0.98090    0.00000
  109      1.09276    0.00000
  110      1.10073    0.00000
  111      1.15400    0.00000
  112      2.28525    0.00000
  113      2.28631    0.00000
  114      2.33923    0.00000
  115      2.37879    0.00000
  116      2.37962    0.00000
  117      2.63919    0.00000
  118      3.30861    0.00000
  119      3.59713    0.00000
  120      3.59869    0.00000
  121      3.60475    0.00000
  122      3.65593    0.00000
  123      3.65954    0.00000

Fermi level: -4.31189

Gap: 4.181 eV
Transition (v -> c):
  (s=0, k=0, n=99, [0.00, 0.00, 0.00]) -> (s=0, k=0, n=100, [0.00, 0.00, 0.00])
No difference between direct/indirect transitions

Forces in eV/Ang:
  0 B    -0.02307   -0.37793    0.00000
  1 C     0.00655   -0.00323    0.00000
  2 B    -0.39268    0.16119    0.00000
  3 N    -0.17425    0.44246    0.00000
  4 B    -0.34683    0.17349    0.00000
  5 N    -0.04524    0.01464    0.00000
  6 B    -0.13093   -0.07037    0.00000
  7 N    -0.00314   -0.04427    0.00000
  8 B     0.05209   -0.32637    0.00000
  9 N     0.32349   -0.39625    0.00000
 10 B    -0.08284    0.05256    0.00000
 11 N     0.49290   -0.12747    0.00000
 12 B     0.35355    0.16586    0.00000
 13 N     0.19296    0.45611    0.00000
 14 B    -0.02859   -0.15479    0.00000
 15 N    -0.00228   -0.09671    0.00000
 16 B    -0.11060   -0.06005    0.00000
 17 N    -0.00900    0.00529    0.00000
 18 B    -0.10978    0.02852    0.00000
 19 N    -0.06738    0.06750    0.00000
 20 B    -0.00019    0.14212    0.00000
 21 N     0.02794   -0.00829    0.00000
 22 B     0.36986    0.07468    0.00000
 23 N    -0.05430   -0.03886    0.00000
 24 B     0.31972    0.18750    0.00000
 25 N     0.05452    0.02592    0.00000
 26 B     0.08196   -0.04064    0.00000
 27 N     0.01675    0.01194    0.00000
 28 B     0.00264    0.09849    0.00000
 29 N     0.01158    0.03622    0.00000
 30 B     0.03050    0.15784    0.00000
 31 N    -0.01483   -0.00987    0.00000
 32 B     0.02949    0.07521    0.00000
 33 N     0.00385   -0.03969    0.00000
 34 B     0.06055   -0.03759    0.00000
 35 N    -0.02663    0.02416    0.00000
 36 B     0.13363   -0.03861    0.00000
 37 N     0.00327   -0.03692    0.00000
 38 B     0.10711    0.06215    0.00000
 39 N     0.07434    0.07353    0.00000
 40 B     0.06214    0.07403    0.00000
 41 N    -0.46535   -0.12935    0.00000
 42 B    -0.35849    0.08087    0.00000
 43 N     0.06861   -0.03988    0.00000
 44 B    -0.02129   -0.04732    0.00000
 45 N     0.03777    0.02518    0.00000
 46 B     0.01128   -0.00348    0.00000
 47 N     0.00119    0.07789    0.00000
 48 B    -0.06777   -0.30375    0.00000
 49 N    -0.31051   -0.37874    0.00000

System changes: positions 

Initializing position-dependent things.

Density initialized from wave functions
                                                            
                                                            
                                                            
                                                            
              N     N     N     N     N                     
             B N   B  N  B  N  B  N  B  N                   
              B      B     B     B     B                    
                BN    BN     B     BN    BN                 
                   N     N     N     N      N               
                  B  C  B  N  B  N  B  N   B N              
                    B     B     B     B     B               
                                                            
                                                            
                                                            
                                                            

Positions:
   0 B     -0.000219   -0.046113   20.000000    ( 0.0000,  0.0000,  0.0000)
   1 C     -0.000145    1.443379   20.000000    ( 0.0000,  0.0000,  0.0000)
   2 B     -1.290802    2.187420   20.000000    ( 0.0000,  0.0000,  0.0000)
   3 N     -1.264252    3.621181   20.000000    ( 0.0000,  0.0000,  0.0000)
   4 B     -2.503047    4.333565   20.000000    ( 0.0000,  0.0000,  0.0000)
   5 N     -2.504685    5.772702   20.000000    ( 0.0000,  0.0000,  0.0000)
   6 B     -3.751104    6.494397   20.000000    ( 0.0000,  0.0000,  0.0000)
   7 N     -3.751570    7.935915   20.000000    ( 0.0000,  0.0000,  0.0000)
   8 B     -4.997083    8.656794   20.000000    ( 0.0000,  0.0000,  0.0000)
   9 N     -4.993964   10.086109   20.000000    ( 0.0000,  0.0000,  0.0000)
  10 B      2.497098    0.001672   20.000000    ( 0.0000,  0.0000,  0.0000)
  11 N      2.518663    1.445489   20.000000    ( 0.0000,  0.0000,  0.0000)
  12 B      1.290431    2.187462   20.000000    ( 0.0000,  0.0000,  0.0000)
  13 N      1.263045    3.621698   20.000000    ( 0.0000,  0.0000,  0.0000)
  14 B     -0.000324    4.325584   20.000000    ( 0.0000,  0.0000,  0.0000)
  15 N     -0.000563    5.769012   20.000000    ( 0.0000,  0.0000,  0.0000)
  16 B     -1.253665    6.494104   20.000000    ( 0.0000,  0.0000,  0.0000)
  17 N     -1.251868    7.939202   20.000000    ( 0.0000,  0.0000,  0.0000)
  18 B     -2.502780    8.659031   20.000000    ( 0.0000,  0.0000,  0.0000)
  19 N     -2.502700   10.107667   20.000000    ( 0.0000,  0.0000,  0.0000)
  20 B      5.001189    0.004091   20.000000    ( 0.0000,  0.0000,  0.0000)
  21 N      5.002535    1.445222   20.000000    ( 0.0000,  0.0000,  0.0000)
  22 B      3.755475    2.163404   20.000000    ( 0.0000,  0.0000,  0.0000)
  23 N      3.751132    3.606995   20.000000    ( 0.0000,  0.0000,  0.0000)
  24 B      2.502929    4.333833   20.000000    ( 0.0000,  0.0000,  0.0000)
  25 N      2.504275    5.773719   20.000000    ( 0.0000,  0.0000,  0.0000)
  26 B      1.253533    6.494457   20.000000    ( 0.0000,  0.0000,  0.0000)
  27 N      1.251901    7.939861   20.000000    ( 0.0000,  0.0000,  0.0000)
  28 B      0.000241    8.661885   20.000000    ( 0.0000,  0.0000,  0.0000)
  29 N      0.000623   10.108667   20.000000    ( 0.0000,  0.0000,  0.0000)
  30 B      7.499739    0.004365   20.000000    ( 0.0000,  0.0000,  0.0000)
  31 N      7.498674    1.445263   20.000000    ( 0.0000,  0.0000,  0.0000)
  32 B      6.250718    2.165015   20.000000    ( 0.0000,  0.0000,  0.0000)
  33 N      6.250625    3.607789   20.000000    ( 0.0000,  0.0000,  0.0000)
  34 B      5.001782    4.329741   20.000000    ( 0.0000,  0.0000,  0.0000)
  35 N      5.001547    5.772701   20.000000    ( 0.0000,  0.0000,  0.0000)
  36 B      3.751506    6.494974   20.000000    ( 0.0000,  0.0000,  0.0000)
  37 N      3.751110    7.936931   20.000000    ( 0.0000,  0.0000,  0.0000)
  38 B      2.503103    8.659632   20.000000    ( 0.0000,  0.0000,  0.0000)
  39 N      2.502840   10.108396   20.000000    ( 0.0000,  0.0000,  0.0000)
  40 B     10.002891    0.002044   20.000000    ( 0.0000,  0.0000,  0.0000)
  41 N      9.980952    1.445548   20.000000    ( 0.0000,  0.0000,  0.0000)
  42 B      8.745102    2.163495   20.000000    ( 0.0000,  0.0000,  0.0000)
  43 N      8.749209    3.606529   20.000000    ( 0.0000,  0.0000,  0.0000)
  44 B      7.499279    4.329556   20.000000    ( 0.0000,  0.0000,  0.0000)
  45 N      7.498854    5.772206   20.000000    ( 0.0000,  0.0000,  0.0000)
  46 B      6.250372    6.494574   20.000000    ( 0.0000,  0.0000,  0.0000)
  47 N      6.249669    7.939948   20.000000    ( 0.0000,  0.0000,  0.0000)
  48 B      4.997136    8.657203   20.000000    ( 0.0000,  0.0000,  0.0000)
  49 N      4.992835   10.086806   20.000000    ( 0.0000,  0.0000,  0.0000)

Unit cell:
           periodic     x           y           z      points  spacing
  1. axis:    yes   12.500000    0.000000    0.000000    56     0.1933
  2. axis:    yes   -6.250000   10.825318    0.000000    56     0.1933
  3. axis:    yes    0.000000    0.000000   40.000000   200     0.2000

  Lengths:  12.500000  12.500000  40.000000
  Angles:   90.000000  90.000000 120.000000

Effective grid spacing dv^(1/3) = 0.2051

     iter     time        total  log10-change:
                         energy   eigst   dens
iter:   1 15:00:34  -416.791891        c
iter:   2 15:00:38  -416.789984        c -2.89
iter:   3 15:00:43  -416.785854c       c -2.95
iter:   4 15:00:48  -416.785728c       c -3.31
iter:   5 15:00:53  -416.785738c       c -3.59
iter:   6 15:00:57  -416.785694c       c -3.78
iter:   7 15:01:02  -416.785692c       c -4.31c

Converged after 7 iterations.

Dipole moment: (-22.442557, -2.936362, -0.000000) |e|*Ang

Energy contributions relative to reference atoms: (reference = -53326.183398)

Kinetic:       +414.306019
Potential:     -414.593109
External:        +0.000000
XC:            -432.338027
Entropy (-ST):   -0.069315
Local:          +15.874083
SIC:             +0.000000
--------------------------
Free energy:   -416.820349
Extrapolated:  -416.785692

 Band  Eigenvalues  Occupancy
    0    -22.70558    2.00000
    1    -22.01914    2.00000
    2    -22.01686    2.00000
    3    -22.01336    2.00000
    4    -21.98682    2.00000
    5    -21.98237    2.00000
    6    -21.61560    2.00000
    7    -20.68368    2.00000
    8    -20.67329    2.00000
    9    -20.67314    2.00000
   10    -20.62407    2.00000
   11    -20.62377    2.00000
   12    -20.46139    2.00000
   13    -20.20144    2.00000
   14    -20.17907    2.00000
   15    -20.17704    2.00000
   16    -20.14552    2.00000
   17    -20.14505    2.00000
   18    -19.70665    2.00000
   19    -19.35337    2.00000
   20    -19.35319    2.00000
   21    -19.33714    2.00000
   22    -19.33684    2.00000
   23    -19.33597    2.00000
   24    -15.69348    2.00000
   25    -13.52966    2.00000
   26    -13.52137    2.00000
   27    -13.50244    2.00000
   28    -13.50219    2.00000
   29    -13.40217    2.00000
   30    -13.40191    2.00000
   31    -13.13748    2.00000
   32    -13.13644    2.00000
   33    -13.11013    2.00000
   34    -12.96828    2.00000
   35    -12.85179    2.00000
   36    -12.85134    2.00000
   37    -11.56586    2.00000
   38    -11.56406    2.00000
   39    -11.53314    2.00000
   40    -11.43287    2.00000
   41    -11.42917    2.00000
   42    -11.24979    2.00000
   43    -10.99167    2.00000
   44    -10.92847    2.00000
   45    -10.92440    2.00000
   46    -10.89796    2.00000
   47    -10.75301    2.00000
   48    -10.75062    2.00000
   49    -10.21679    2.00000
   50     -9.84912    2.00000
   51     -9.73527    2.00000
   52     -9.73387    2.00000
   53     -9.73329    2.00000
   54     -9.62856    2.00000
   55     -9.62610    2.00000
   56     -9.25219    2.00000
   57     -9.24956    2.00000
   58     -9.24688    2.00000
   59     -9.22638    2.00000
   60     -9.22313    2.00000
   61     -9.03929    2.00000
   62     -9.03623    2.00000
   63     -9.03135    2.00000
   64     -9.02261    2.00000
   65     -9.01941    2.00000
   66     -9.01785    2.00000
   67     -8.99672    2.00000
   68     -8.99393    2.00000
   69     -8.92619    2.00000
   70     -8.91447    2.00000
   71     -8.73119    2.00000
   72     -8.32516    2.00000
   73     -8.32329    2.00000
   74     -7.59560    2.00000
   75     -7.54699    2.00000
   76     -7.54107    2.00000
   77     -7.53946    2.00000
   78     -7.38920    2.00000
   79     -7.37972    2.00000
   80     -7.37914    2.00000
   81     -7.34271    2.00000
   82     -7.34231    2.00000
   83     -7.14840    2.00000
   84     -6.90670    2.00000
   85     -6.90062    2.00000
   86     -6.67494    2.00000
   87     -6.65069    2.00000
   88     -6.64820    2.00000
   89     -6.62700    2.00000
   90     -6.62563    2.00000
   91     -6.20590    2.00000
   92     -5.85582    2.00000
   93     -5.85317    2.00000
   94     -5.37456    2.00000
   95     -5.37436    2.00000
   96     -5.33714    2.00000
   97     -5.33558    2.00000
   98     -5.33432    2.00000
   99     -4.27330    1.00000
  100     -0.12823    0.00000
  101     -0.12022    0.00000
  102     -0.10908    0.00000
  103     -0.10808    0.00000
  104      0.00749    0.00000
  105      0.00896    0.00000
  106      0.96238    0.00000
  107      0.98481    0.00000
  108      0.98914    0.00000
  109      1.08899    0.00000
  110      1.09310    0.00000
  111      1.14914    0.00000
  112      2.28839    0.00000
  113      2.29040    0.00000
  114      2.35854    0.00000
  115      2.36504    0.00000
  116      2.36702    0.00000
  117      2.65034    0.00000
  118      3.31067    0.00000
  119      3.59472    0.00000
  120      3.60435    0.00000
  121      3.60805    0.00000
  122      3.65596    0.00000
  123      3.65694    0.00000

Fermi level: -4.27330

Gap: 4.145 eV
Transition (v -> c):
  (s=0, k=0, n=99, [0.00, 0.00, 0.00]) -> (s=0, k=0, n=100, [0.00, 0.00, 0.00])
No difference between direct/indirect transitions

Forces in eV/Ang:
  0 B     0.00504    0.02983    0.00000
  1 C    -0.01279    0.00395    0.00000
  2 B     0.03702   -0.02804    0.00000
  3 N    -0.14309    0.08845    0.00000
  4 B    -0.19391    0.16528    0.00000
  5 N    -0.14831    0.08610    0.00000
  6 B    -0.01100   -0.00117    0.00000
  7 N     0.02069   -0.16003    0.00000
  8 B     0.06202   -0.26328    0.00000
  9 N    -0.01759   -0.14357    0.00000
 10 B     0.06483   -0.05641    0.00000
 11 N     0.28945    0.07942    0.00000
 12 B    -0.02224   -0.02110    0.00000
 13 N     0.13482    0.10573    0.00000
 14 B    -0.00356    0.06191    0.00000
 15 N    -0.00995   -0.00644    0.00000
 16 B     0.02374   -0.02787    0.00000
 17 N    -0.03541    0.01109    0.00000
 18 B    -0.01214    0.06488    0.00000
 19 N     0.02608    0.02813    0.00000
 20 B    -0.04088   -0.02012    0.00000
 21 N     0.19002    0.06884    0.00000
 22 B     0.25429    0.04661    0.00000
 23 N     0.17087    0.03918    0.00000
 24 B     0.20218    0.17572    0.00000
 25 N     0.14910    0.10836    0.00000
 26 B    -0.03026   -0.02261    0.00000
 27 N     0.04295    0.02485    0.00000
 28 B     0.00098    0.02827    0.00000
 29 N     0.01680    0.08716    0.00000
 30 B     0.04888   -0.01793    0.00000
 31 N    -0.15572    0.07046    0.00000
 32 B     0.00296   -0.01279    0.00000
 33 N     0.01697    0.00966    0.00000
 34 B    -0.02412   -0.01610    0.00000
 35 N     0.07029   -0.04977    0.00000
 36 B     0.01377    0.00464    0.00000
 37 N    -0.02132   -0.13713    0.00000
 38 B     0.00873    0.07542    0.00000
 39 N    -0.01940    0.03845    0.00000
 40 B    -0.06429   -0.04941    0.00000
 41 N    -0.25853    0.08574    0.00000
 42 B    -0.23905    0.04442    0.00000
 43 N    -0.16481    0.02806    0.00000
 44 B     0.03017   -0.01662    0.00000
 45 N    -0.05838   -0.06364    0.00000
 46 B     0.00254    0.04398    0.00000
 47 N    -0.00640   -0.15559    0.00000
 48 B    -0.06446   -0.25229    0.00000
 49 N     0.01107   -0.12419    0.00000

System changes: positions 

Initializing position-dependent things.

Density initialized from wave functions
                                                            
                                                            
                                                            
                                                            
              N     N     N     N     N                     
             B N   B  N  B  N  B  N  B  N                   
              B      B     B     B     B                    
                BN    BN     B     BN    BN                 
                   N     N     N     N      N               
                  B  C  B  N  B  N  B  N   B N              
                    B     B     B     B     B               
                                                            
                                                            
                                                            
                                                            

Positions:
   0 B     -0.000235   -0.052374   20.000000    ( 0.0000,  0.0000,  0.0000)
   1 C     -0.000394    1.443446   20.000000    ( 0.0000,  0.0000,  0.0000)
   2 B     -1.296362    2.190092   20.000000    ( 0.0000,  0.0000,  0.0000)
   3 N     -1.269494    3.626228   20.000000    ( 0.0000,  0.0000,  0.0000)
   4 B     -2.508715    4.338001   20.000000    ( 0.0000,  0.0000,  0.0000)
   5 N     -2.508403    5.774406   20.000000    ( 0.0000,  0.0000,  0.0000)
   6 B     -3.751982    6.493998   20.000000    ( 0.0000,  0.0000,  0.0000)
   7 N     -3.751347    7.932199   20.000000    ( 0.0000,  0.0000,  0.0000)
   8 B     -4.995283    8.649760   20.000000    ( 0.0000,  0.0000,  0.0000)
   9 N     -4.992313   10.079582   20.000000    ( 0.0000,  0.0000,  0.0000)
  10 B      2.497736    0.000939   20.000000    ( 0.0000,  0.0000,  0.0000)
  11 N      2.528656    1.446821   20.000000    ( 0.0000,  0.0000,  0.0000)
  12 B      1.296089    2.190298   20.000000    ( 0.0000,  0.0000,  0.0000)
  13 N      1.268055    3.627209   20.000000    ( 0.0000,  0.0000,  0.0000)
  14 B     -0.000548    4.325682   20.000000    ( 0.0000,  0.0000,  0.0000)
  15 N     -0.000839    5.767972   20.000000    ( 0.0000,  0.0000,  0.0000)
  16 B     -1.254057    6.493173   20.000000    ( 0.0000,  0.0000,  0.0000)
  17 N     -1.252835    7.939521   20.000000    ( 0.0000,  0.0000,  0.0000)
  18 B     -2.503790    8.660314   20.000000    ( 0.0000,  0.0000,  0.0000)
  19 N     -2.502758   10.108975   20.000000    ( 0.0000,  0.0000,  0.0000)
  20 B      5.000501    0.004732   20.000000    ( 0.0000,  0.0000,  0.0000)
  21 N      5.006777    1.446792   20.000000    ( 0.0000,  0.0000,  0.0000)
  22 B      3.762735    2.164454   20.000000    ( 0.0000,  0.0000,  0.0000)
  23 N      3.754493    3.607462   20.000000    ( 0.0000,  0.0000,  0.0000)
  24 B      2.508641    4.338566   20.000000    ( 0.0000,  0.0000,  0.0000)
  25 N      2.507999    5.776036   20.000000    ( 0.0000,  0.0000,  0.0000)
  26 B      1.253662    6.493752   20.000000    ( 0.0000,  0.0000,  0.0000)
  27 N      1.253056    7.940560   20.000000    ( 0.0000,  0.0000,  0.0000)
  28 B      0.000299    8.663042   20.000000    ( 0.0000,  0.0000,  0.0000)
  29 N      0.001081   10.111156   20.000000    ( 0.0000,  0.0000,  0.0000)
  30 B      7.500819    0.005146   20.000000    ( 0.0000,  0.0000,  0.0000)
  31 N      7.495317    1.446863   20.000000    ( 0.0000,  0.0000,  0.0000)
  32 B      6.250980    2.165055   20.000000    ( 0.0000,  0.0000,  0.0000)
  33 N      6.251056    3.607749   20.000000    ( 0.0000,  0.0000,  0.0000)
  34 B      5.001746    4.329220   20.000000    ( 0.0000,  0.0000,  0.0000)
  35 N      5.003037    5.771702   20.000000    ( 0.0000,  0.0000,  0.0000)
  36 B      3.752498    6.494886   20.000000    ( 0.0000,  0.0000,  0.0000)
  37 N      3.750821    7.933825   20.000000    ( 0.0000,  0.0000,  0.0000)
  38 B      2.504071    8.661334   20.000000    ( 0.0000,  0.0000,  0.0000)
  39 N      2.503077   10.110020   20.000000    ( 0.0000,  0.0000,  0.0000)
  40 B     10.002178    0.001582   20.000000    ( 0.0000,  0.0000,  0.0000)
  41 N      9.971649    1.447008   20.000000    ( 0.0000,  0.0000,  0.0000)
  42 B      8.738261    2.164537   20.000000    ( 0.0000,  0.0000,  0.0000)
  43 N      8.746068    3.606713   20.000000    ( 0.0000,  0.0000,  0.0000)
  44 B      7.499719    4.328964   20.000000    ( 0.0000,  0.0000,  0.0000)
  45 N      7.497696    5.770873   20.000000    ( 0.0000,  0.0000,  0.0000)
  46 B      6.250512    6.495377   20.000000    ( 0.0000,  0.0000,  0.0000)
  47 N      6.249507    7.937281   20.000000    ( 0.0000,  0.0000,  0.0000)
  48 B      4.995230    8.650530   20.000000    ( 0.0000,  0.0000,  0.0000)
  49 N      4.990975   10.080823   20.000000    ( 0.0000,  0.0000,  0.0000)

Unit cell:
           periodic     x           y           z      points  spacing
  1. axis:    yes   12.500000    0.000000    0.000000    56     0.1933
  2. axis:    yes   -6.250000   10.825318    0.000000    56     0.1933
  3. axis:    yes    0.000000    0.000000   40.000000   200     0.2000

  Lengths:  12.500000  12.500000  40.000000
  Angles:   90.000000  90.000000 120.000000

Effective grid spacing dv^(1/3) = 0.2051

     iter     time        total  log10-change:
                         energy   eigst   dens
iter:   1 15:01:17  -416.805190        c
iter:   2 15:01:22  -416.803806        c -2.94
iter:   3 15:01:26  -416.800862c       c -3.01
iter:   4 15:01:31  -416.800731c       c -3.39
iter:   5 15:01:35  -416.800736c       c -3.68
iter:   6 15:01:40  -416.800707c       c -3.88
iter:   7 15:01:44  -416.800705c       c -4.32c

Converged after 7 iterations.

Dipole moment: (-21.748221, -2.556495, 0.000000) |e|*Ang

Energy contributions relative to reference atoms: (reference = -53326.183398)

Kinetic:       +414.331025
Potential:     -414.612315
External:        +0.000000
XC:            -432.359507
Entropy (-ST):   -0.069315
Local:          +15.874749
SIC:             +0.000000
--------------------------
Free energy:   -416.835363
Extrapolated:  -416.800705

 Band  Eigenvalues  Occupancy
    0    -22.71131    2.00000
    1    -22.03289    2.00000
    2    -22.02717    2.00000
    3    -22.01523    2.00000
    4    -21.99071    2.00000
    5    -21.98523    2.00000
    6    -21.59730    2.00000
    7    -20.69842    2.00000
    8    -20.68475    2.00000
    9    -20.68450    2.00000
   10    -20.61420    2.00000
   11    -20.61248    2.00000
   12    -20.46794    2.00000
   13    -20.20699    2.00000
   14    -20.18073    2.00000
   15    -20.17968    2.00000
   16    -20.13777    2.00000
   17    -20.13562    2.00000
   18    -19.70989    2.00000
   19    -19.36714    2.00000
   20    -19.36494    2.00000
   21    -19.33725    2.00000
   22    -19.32970    2.00000
   23    -19.32772    2.00000
   24    -15.66124    2.00000
   25    -13.54343    2.00000
   26    -13.51785    2.00000
   27    -13.50740    2.00000
   28    -13.50657    2.00000
   29    -13.40407    2.00000
   30    -13.40364    2.00000
   31    -13.14411    2.00000
   32    -13.14205    2.00000
   33    -13.10043    2.00000
   34    -12.96675    2.00000
   35    -12.84749    2.00000
   36    -12.84648    2.00000
   37    -11.57343    2.00000
   38    -11.57098    2.00000
   39    -11.54186    2.00000
   40    -11.43684    2.00000
   41    -11.43318    2.00000
   42    -11.25293    2.00000
   43    -10.99489    2.00000
   44    -10.91627    2.00000
   45    -10.91404    2.00000
   46    -10.90217    2.00000
   47    -10.74865    2.00000
   48    -10.74675    2.00000
   49    -10.22019    2.00000
   50     -9.86247    2.00000
   51     -9.73564    2.00000
   52     -9.73496    2.00000
   53     -9.72077    2.00000
   54     -9.63532    2.00000
   55     -9.62836    2.00000
   56     -9.26229    2.00000
   57     -9.25838    2.00000
   58     -9.24918    2.00000
   59     -9.22848    2.00000
   60     -9.22504    2.00000
   61     -9.05427    2.00000
   62     -9.04893    2.00000
   63     -9.03778    2.00000
   64     -9.03541    2.00000
   65     -9.03036    2.00000
   66     -9.00954    2.00000
   67     -8.98182    2.00000
   68     -8.97492    2.00000
   69     -8.91426    2.00000
   70     -8.89495    2.00000
   71     -8.73082    2.00000
   72     -8.31709    2.00000
   73     -8.31334    2.00000
   74     -7.61447    2.00000
   75     -7.54888    2.00000
   76     -7.53467    2.00000
   77     -7.52921    2.00000
   78     -7.40022    2.00000
   79     -7.38724    2.00000
   80     -7.38675    2.00000
   81     -7.33528    2.00000
   82     -7.33355    2.00000
   83     -7.14994    2.00000
   84     -6.90318    2.00000
   85     -6.89217    2.00000
   86     -6.67711    2.00000
   87     -6.65070    2.00000
   88     -6.64777    2.00000
   89     -6.62448    2.00000
   90     -6.61875    2.00000
   91     -6.20725    2.00000
   92     -5.86143    2.00000
   93     -5.85176    2.00000
   94     -5.38555    2.00000
   95     -5.38376    2.00000
   96     -5.33450    2.00000
   97     -5.32891    2.00000
   98     -5.32644    2.00000
   99     -4.26082    1.00000
  100     -0.14193    0.00000
  101     -0.12513    0.00000
  102     -0.09930    0.00000
  103     -0.09782    0.00000
  104      0.00713    0.00000
  105      0.00806    0.00000
  106      0.96071    0.00000
  107      0.98441    0.00000
  108      0.98835    0.00000
  109      1.08232    0.00000
  110      1.09220    0.00000
  111      1.16578    0.00000
  112      2.28976    0.00000
  113      2.29203    0.00000
  114      2.36018    0.00000
  115      2.36170    0.00000
  116      2.36351    0.00000
  117      2.65472    0.00000
  118      3.30963    0.00000
  119      3.60048    0.00000
  120      3.60197    0.00000
  121      3.60763    0.00000
  122      3.65768    0.00000
  123      3.65963    0.00000

Fermi level: -4.26082

Gap: 4.119 eV
Transition (v -> c):
  (s=0, k=0, n=99, [0.00, 0.00, 0.00]) -> (s=0, k=0, n=100, [0.00, 0.00, 0.00])
No difference between direct/indirect transitions

Forces in eV/Ang:
  0 B     0.00371    0.17062    0.00000
  1 C     0.01073   -0.00589    0.00000
  2 B     0.08310   -0.08485    0.00000
  3 N    -0.00661   -0.03771    0.00000
  4 B    -0.13924    0.03135    0.00000
  5 N     0.02271    0.11023    0.00000
  6 B    -0.09626   -0.05813    0.00000
  7 N     0.07817   -0.03135    0.00000
  8 B    -0.01234   -0.12934    0.00000
  9 N    -0.06782   -0.00805    0.00000
 10 B     0.03707   -0.00784    0.00000
 11 N    -0.12040    0.09121    0.00000
 12 B    -0.07048   -0.08451    0.00000
 13 N     0.02628   -0.03979    0.00000
 14 B    -0.00289    0.03310    0.00000
 15 N    -0.00282    0.06610    0.00000
 16 B    -0.02125    0.01493    0.00000
 17 N     0.00202    0.01025    0.00000
 18 B     0.00427    0.00106    0.00000
 19 N     0.04784   -0.04751    0.00000
 20 B     0.03156    0.02895    0.00000
 21 N     0.09194   -0.06354    0.00000
 22 B     0.19543    0.07883    0.00000
 23 N     0.08904    0.05623    0.00000
 24 B     0.14532    0.04775    0.00000
 25 N    -0.01999    0.11691    0.00000
 26 B     0.01364    0.02150    0.00000
 27 N    -0.00460    0.01316    0.00000
 28 B     0.00217    0.02800    0.00000
 29 N    -0.00130   -0.03297    0.00000
 30 B    -0.01676    0.03521    0.00000
 31 N    -0.07611   -0.06546    0.00000
 32 B     0.01155    0.08893    0.00000
 33 N    -0.00222    0.00418    0.00000
 34 B     0.09896    0.02254    0.00000
 35 N     0.00058    0.01105    0.00000
 36 B     0.10165   -0.04251    0.00000
 37 N    -0.07297   -0.03264    0.00000
 38 B    -0.00302    0.01128    0.00000
 39 N    -0.04275   -0.04667    0.00000
 40 B    -0.02973    0.00158    0.00000
 41 N     0.14469    0.08641    0.00000
 42 B    -0.16803    0.07432    0.00000
 43 N    -0.07526    0.05547    0.00000
 44 B    -0.08675    0.01890    0.00000
 45 N     0.00298    0.01342    0.00000
 46 B     0.00364   -0.10455    0.00000
 47 N     0.00099   -0.09010    0.00000
 48 B     0.01091   -0.11317    0.00000
 49 N     0.07822   -0.00494    0.00000

System changes: positions 

Initializing position-dependent things.

Density initialized from wave functions
                                                            
                                                            
                                                            
                                                            
              N     N     N     N     N                     
             B N   B  N  B  N  B  N  B  N                   
              B      B     B     B     B                    
                BN    BN     B     BN    BN                 
                   N     N     N     N      N               
                  B  C  B  N  B  N  B  N   B N              
                    B     B     B     B     B               
                                                            
                                                            
                                                            
                                                            

Positions:
   0 B     -0.000186   -0.051750   20.000000    ( 0.0000,  0.0000,  0.0000)
   1 C     -0.000274    1.443365   20.000000    ( 0.0000,  0.0000,  0.0000)
   2 B     -1.296904    2.189682   20.000000    ( 0.0000,  0.0000,  0.0000)
   3 N     -1.270912    3.626899   20.000000    ( 0.0000,  0.0000,  0.0000)
   4 B     -2.512154    4.339462   20.000000    ( 0.0000,  0.0000,  0.0000)
   5 N     -2.508868    5.776493   20.000000    ( 0.0000,  0.0000,  0.0000)
   6 B     -3.753726    6.492969   20.000000    ( 0.0000,  0.0000,  0.0000)
   7 N     -3.750082    7.930907   20.000000    ( 0.0000,  0.0000,  0.0000)
   8 B     -4.995065    8.646202   20.000000    ( 0.0000,  0.0000,  0.0000)
   9 N     -4.992930   10.077806   20.000000    ( 0.0000,  0.0000,  0.0000)
  10 B      2.498395    0.000703   20.000000    ( 0.0000,  0.0000,  0.0000)
  11 N      2.529101    1.448569   20.000000    ( 0.0000,  0.0000,  0.0000)
  12 B      1.296841    2.189926   20.000000    ( 0.0000,  0.0000,  0.0000)
  13 N      1.269722    3.627949   20.000000    ( 0.0000,  0.0000,  0.0000)
  14 B     -0.000648    4.326135   20.000000    ( 0.0000,  0.0000,  0.0000)
  15 N     -0.000949    5.768732   20.000000    ( 0.0000,  0.0000,  0.0000)
  16 B     -1.254550    6.493201   20.000000    ( 0.0000,  0.0000,  0.0000)
  17 N     -1.253029    7.939760   20.000000    ( 0.0000,  0.0000,  0.0000)
  18 B     -2.503982    8.660568   20.000000    ( 0.0000,  0.0000,  0.0000)
  19 N     -2.502060   10.108555   20.000000    ( 0.0000,  0.0000,  0.0000)
  20 B      5.000889    0.005408   20.000000    ( 0.0000,  0.0000,  0.0000)
  21 N      5.009137    1.446122   20.000000    ( 0.0000,  0.0000,  0.0000)
  22 B      3.767434    2.165899   20.000000    ( 0.0000,  0.0000,  0.0000)
  23 N      3.756599    3.608424   20.000000    ( 0.0000,  0.0000,  0.0000)
  24 B      2.512180    4.340355   20.000000    ( 0.0000,  0.0000,  0.0000)
  25 N      2.508503    5.778371   20.000000    ( 0.0000,  0.0000,  0.0000)
  26 B      1.253975    6.493938   20.000000    ( 0.0000,  0.0000,  0.0000)
  27 N      1.253247    7.940934   20.000000    ( 0.0000,  0.0000,  0.0000)
  28 B      0.000350    8.663758   20.000000    ( 0.0000,  0.0000,  0.0000)
  29 N      0.001164   10.111218   20.000000    ( 0.0000,  0.0000,  0.0000)
  30 B      7.500764    0.005956   20.000000    ( 0.0000,  0.0000,  0.0000)
  31 N      7.493409    1.446170   20.000000    ( 0.0000,  0.0000,  0.0000)
  32 B      6.251232    2.166489   20.000000    ( 0.0000,  0.0000,  0.0000)
  33 N      6.251118    3.607792   20.000000    ( 0.0000,  0.0000,  0.0000)
  34 B      5.003356    4.329466   20.000000    ( 0.0000,  0.0000,  0.0000)
  35 N      5.003368    5.771667   20.000000    ( 0.0000,  0.0000,  0.0000)
  36 B      3.754358    6.494183   20.000000    ( 0.0000,  0.0000,  0.0000)
  37 N      3.749619    7.932652   20.000000    ( 0.0000,  0.0000,  0.0000)
  38 B      2.504280    8.661847   20.000000    ( 0.0000,  0.0000,  0.0000)
  39 N      2.502499   10.109690   20.000000    ( 0.0000,  0.0000,  0.0000)
  40 B     10.001619    0.001558   20.000000    ( 0.0000,  0.0000,  0.0000)
  41 N      9.971725    1.448705   20.000000    ( 0.0000,  0.0000,  0.0000)
  42 B      8.734096    2.165911   20.000000    ( 0.0000,  0.0000,  0.0000)
  43 N      8.744233    3.607598   20.000000    ( 0.0000,  0.0000,  0.0000)
  44 B      7.498407    4.329133   20.000000    ( 0.0000,  0.0000,  0.0000)
  45 N      7.497496    5.770801   20.000000    ( 0.0000,  0.0000,  0.0000)
  46 B      6.250606    6.493856   20.000000    ( 0.0000,  0.0000,  0.0000)
  47 N      6.249484    7.935343   20.000000    ( 0.0000,  0.0000,  0.0000)
  48 B      4.994967    8.647312   20.000000    ( 0.0000,  0.0000,  0.0000)
  49 N      4.991698   10.079218   20.000000    ( 0.0000,  0.0000,  0.0000)

Unit cell:
           periodic     x           y           z      points  spacing
  1. axis:    yes   12.500000    0.000000    0.000000    56     0.1933
  2. axis:    yes   -6.250000   10.825318    0.000000    56     0.1933
  3. axis:    yes    0.000000    0.000000   40.000000   200     0.2000

  Lengths:  12.500000  12.500000  40.000000
  Angles:   90.000000  90.000000 120.000000

Effective grid spacing dv^(1/3) = 0.2051

     iter     time        total  log10-change:
                         energy   eigst   dens
iter:   1 15:02:00  -416.807241        c
iter:   2 15:02:05  -416.806691        c -3.19
iter:   3 15:02:10  -416.805422c       c -3.25
iter:   4 15:02:14  -416.805359c       c -3.62
iter:   5 15:02:19  -416.805354c       c -3.97
iter:   6 15:02:23  -416.805349c       c -4.22c

Converged after 6 iterations.

Dipole moment: (-21.127994, -2.751528, -0.000000) |e|*Ang

Energy contributions relative to reference atoms: (reference = -53326.183398)

Kinetic:       +414.306659
Potential:     -414.593207
External:        +0.000000
XC:            -432.357838
Entropy (-ST):   -0.069315
Local:          +15.873695
SIC:             +0.000000
--------------------------
Free energy:   -416.840007
Extrapolated:  -416.805349

 Band  Eigenvalues  Occupancy
    0    -22.71532    2.00000
    1    -22.04420    2.00000
    2    -22.03105    2.00000
    3    -22.02495    2.00000
    4    -21.98676    2.00000
    5    -21.97479    2.00000
    6    -21.58569    2.00000
    7    -20.69595    2.00000
    8    -20.68763    2.00000
    9    -20.68711    2.00000
   10    -20.61456    2.00000
   11    -20.61147    2.00000
   12    -20.47681    2.00000
   13    -20.21101    2.00000
   14    -20.17247    2.00000
   15    -20.17173    2.00000
   16    -20.13751    2.00000
   17    -20.13482    2.00000
   18    -19.71343    2.00000
   19    -19.37417    2.00000
   20    -19.36894    2.00000
   21    -19.33425    2.00000
   22    -19.32924    2.00000
   23    -19.32105    2.00000
   24    -15.65252    2.00000
   25    -13.55579    2.00000
   26    -13.52569    2.00000
   27    -13.50243    2.00000
   28    -13.49732    2.00000
   29    -13.40957    2.00000
   30    -13.40916    2.00000
   31    -13.14962    2.00000
   32    -13.14686    2.00000
   33    -13.09205    2.00000
   34    -12.96950    2.00000
   35    -12.84091    2.00000
   36    -12.83931    2.00000
   37    -11.57130    2.00000
   38    -11.56999    2.00000
   39    -11.54594    2.00000
   40    -11.43681    2.00000
   41    -11.43078    2.00000
   42    -11.26066    2.00000
   43    -10.99372    2.00000
   44    -10.91724    2.00000
   45    -10.91473    2.00000
   46    -10.90071    2.00000
   47    -10.74622    2.00000
   48    -10.74471    2.00000
   49    -10.22256    2.00000
   50     -9.85614    2.00000
   51     -9.73825    2.00000
   52     -9.73582    2.00000
   53     -9.72235    2.00000
   54     -9.63474    2.00000
   55     -9.63067    2.00000
   56     -9.27189    2.00000
   57     -9.26134    2.00000
   58     -9.25744    2.00000
   59     -9.22460    2.00000
   60     -9.21540    2.00000
   61     -9.06405    2.00000
   62     -9.06369    2.00000
   63     -9.04251    2.00000
   64     -9.02740    2.00000
   65     -9.02529    2.00000
   66     -9.01752    2.00000
   67     -8.97415    2.00000
   68     -8.97205    2.00000
   69     -8.90482    2.00000
   70     -8.88593    2.00000
   71     -8.72223    2.00000
   72     -8.31617    2.00000
   73     -8.31350    2.00000
   74     -7.60894    2.00000
   75     -7.55020    2.00000
   76     -7.53104    2.00000
   77     -7.52872    2.00000
   78     -7.39800    2.00000
   79     -7.38873    2.00000
   80     -7.38831    2.00000
   81     -7.33448    2.00000
   82     -7.33269    2.00000
   83     -7.15606    2.00000
   84     -6.90896    2.00000
   85     -6.90437    2.00000
   86     -6.67968    2.00000
   87     -6.64333    2.00000
   88     -6.64253    2.00000
   89     -6.62381    2.00000
   90     -6.62315    2.00000
   91     -6.21140    2.00000
   92     -5.85808    2.00000
   93     -5.84504    2.00000
   94     -5.38653    2.00000
   95     -5.38427    2.00000
   96     -5.33458    2.00000
   97     -5.33284    2.00000
   98     -5.32360    2.00000
   99     -4.25317    1.00000
  100     -0.14463    0.00000
  101     -0.12566    0.00000
  102     -0.10233    0.00000
  103     -0.09778    0.00000
  104      0.00761    0.00000
  105      0.01111    0.00000
  106      0.96448    0.00000
  107      0.98473    0.00000
  108      0.98819    0.00000
  109      1.08216    0.00000
  110      1.08913    0.00000
  111      1.16489    0.00000
  112      2.29052    0.00000
  113      2.29173    0.00000
  114      2.35685    0.00000
  115      2.36476    0.00000
  116      2.36571    0.00000
  117      2.65139    0.00000
  118      3.30877    0.00000
  119      3.59817    0.00000
  120      3.60243    0.00000
  121      3.60645    0.00000
  122      3.65761    0.00000
  123      3.65843    0.00000

Fermi level: -4.25317

Gap: 4.109 eV
Transition (v -> c):
  (s=0, k=0, n=99, [0.00, 0.00, 0.00]) -> (s=0, k=0, n=100, [0.00, 0.00, 0.00])
No difference between direct/indirect transitions

Forces in eV/Ang:
  0 B     0.00705    0.08841    0.00000
  1 C     0.01113    0.02082    0.00000
  2 B     0.10815   -0.01377    0.00000
  3 N    -0.02197   -0.02507    0.00000
  4 B    -0.00408    0.01239    0.00000
  5 N    -0.01719    0.02326    0.00000
  6 B    -0.01031   -0.00161    0.00000
  7 N     0.01245   -0.01909    0.00000
  8 B    -0.00755   -0.01534    0.00000
  9 N    -0.01303   -0.00060    0.00000
 10 B    -0.00817    0.01083    0.00000
 11 N     0.01613    0.02261    0.00000
 12 B    -0.08499   -0.01513    0.00000
 13 N     0.03185   -0.02210    0.00000
 14 B     0.00693    0.01600    0.00000
 15 N     0.00127    0.04710    0.00000
 16 B     0.00538    0.05134    0.00000
 17 N     0.01848    0.01923    0.00000
 18 B     0.03448   -0.02776    0.00000
 19 N     0.03601    0.00090    0.00000
 20 B     0.03857   -0.03697    0.00000
 21 N     0.05564    0.00994    0.00000
 22 B     0.01049    0.01992    0.00000
 23 N     0.11845    0.04930    0.00000
 24 B     0.01767    0.01885    0.00000
 25 N     0.01681    0.03706    0.00000
 26 B    -0.00920    0.05339    0.00000
 27 N    -0.01729    0.02288    0.00000
 28 B    -0.00121   -0.00926    0.00000
 29 N     0.00331   -0.00470    0.00000
 30 B    -0.03403   -0.03745    0.00000
 31 N    -0.03240    0.01063    0.00000
 32 B     0.00728    0.02353    0.00000
 33 N     0.00359    0.02079    0.00000
 34 B     0.06042    0.04201    0.00000
 35 N     0.03549   -0.03234    0.00000
 36 B     0.01614    0.00227    0.00000
 37 N    -0.00882   -0.00867    0.00000
 38 B    -0.03227   -0.02673    0.00000
 39 N    -0.02514    0.00686    0.00000
 40 B     0.01973    0.01053    0.00000
 41 N    -0.00791    0.02007    0.00000
 42 B     0.01004    0.01483    0.00000
 43 N    -0.10447    0.04354    0.00000
 44 B    -0.05597    0.03926    0.00000
 45 N    -0.03287   -0.03488    0.00000
 46 B     0.00097   -0.06172    0.00000
 47 N     0.00018   -0.10243    0.00000
 48 B     0.01095   -0.00961    0.00000
 49 N     0.02554   -0.00008    0.00000

System changes: positions 

Initializing position-dependent things.

Density initialized from wave functions
                                                            
                                                            
                                                            
                                                            
              N     N     N     N     N                     
             B N   B  N  B  N  B  N  B  N                   
              B      B     B     B     B                    
                BN    BN     B     BN    BN                 
                   N     N     N     N      N               
                  B  C  B  N  B  N  B  N   B N              
                    B     B     B     B     B               
                                                            
                                                            
                                                            
                                                            

Positions:
   0 B     -0.000048   -0.050137   20.000000    ( 0.0000,  0.0000,  0.0000)
   1 C     -0.000019    1.443736   20.000000    ( 0.0000,  0.0000,  0.0000)
   2 B     -1.295283    2.189410   20.000000    ( 0.0000,  0.0000,  0.0000)
   3 N     -1.271890    3.626889   20.000000    ( 0.0000,  0.0000,  0.0000)
   4 B     -2.513507    4.340252   20.000000    ( 0.0000,  0.0000,  0.0000)
   5 N     -2.509367    5.777602   20.000000    ( 0.0000,  0.0000,  0.0000)
   6 B     -3.754551    6.492572   20.000000    ( 0.0000,  0.0000,  0.0000)
   7 N     -3.749448    7.930114   20.000000    ( 0.0000,  0.0000,  0.0000)
   8 B     -4.995112    8.644611   20.000000    ( 0.0000,  0.0000,  0.0000)
   9 N     -4.993186   10.076996   20.000000    ( 0.0000,  0.0000,  0.0000)
  10 B      2.498394    0.000870   20.000000    ( 0.0000,  0.0000,  0.0000)
  11 N      2.529831    1.449483   20.000000    ( 0.0000,  0.0000,  0.0000)
  12 B      1.295707    2.189643   20.000000    ( 0.0000,  0.0000,  0.0000)
  13 N      1.270977    3.628026   20.000000    ( 0.0000,  0.0000,  0.0000)
  14 B     -0.000563    4.326489   20.000000    ( 0.0000,  0.0000,  0.0000)
  15 N     -0.000961    5.769815   20.000000    ( 0.0000,  0.0000,  0.0000)
  16 B     -1.254671    6.494160   20.000000    ( 0.0000,  0.0000,  0.0000)
  17 N     -1.252743    7.940207   20.000000    ( 0.0000,  0.0000,  0.0000)
  18 B     -2.503448    8.660127   20.000000    ( 0.0000,  0.0000,  0.0000)
  19 N     -2.501192   10.108480   20.000000    ( 0.0000,  0.0000,  0.0000)
  20 B      5.001755    0.005001   20.000000    ( 0.0000,  0.0000,  0.0000)
  21 N      5.010958    1.446093   20.000000    ( 0.0000,  0.0000,  0.0000)
  22 B      3.769322    2.166776   20.000000    ( 0.0000,  0.0000,  0.0000)
  23 N      3.759494    3.609646   20.000000    ( 0.0000,  0.0000,  0.0000)
  24 B      2.513810    4.341381   20.000000    ( 0.0000,  0.0000,  0.0000)
  25 N      2.509010    5.779828   20.000000    ( 0.0000,  0.0000,  0.0000)
  26 B      1.253952    6.494997   20.000000    ( 0.0000,  0.0000,  0.0000)
  27 N      1.252986    7.941497   20.000000    ( 0.0000,  0.0000,  0.0000)
  28 B      0.000345    8.663863   20.000000    ( 0.0000,  0.0000,  0.0000)
  29 N      0.001259   10.111169   20.000000    ( 0.0000,  0.0000,  0.0000)
  30 B      7.500109    0.005591   20.000000    ( 0.0000,  0.0000,  0.0000)
  31 N      7.492183    1.446145   20.000000    ( 0.0000,  0.0000,  0.0000)
  32 B      6.251469    2.167437   20.000000    ( 0.0000,  0.0000,  0.0000)
  33 N      6.251208    3.608180   20.000000    ( 0.0000,  0.0000,  0.0000)
  34 B      5.005061    4.330327   20.000000    ( 0.0000,  0.0000,  0.0000)
  35 N      5.004135    5.771053   20.000000    ( 0.0000,  0.0000,  0.0000)
  36 B      3.755332    6.493981   20.000000    ( 0.0000,  0.0000,  0.0000)
  37 N      3.749073    7.932100   20.000000    ( 0.0000,  0.0000,  0.0000)
  38 B      2.503792    8.661528   20.000000    ( 0.0000,  0.0000,  0.0000)
  39 N      2.501881   10.109762   20.000000    ( 0.0000,  0.0000,  0.0000)
  40 B     10.001862    0.001800   20.000000    ( 0.0000,  0.0000,  0.0000)
  41 N      9.971330    1.449553   20.000000    ( 0.0000,  0.0000,  0.0000)
  42 B      8.732776    2.166671   20.000000    ( 0.0000,  0.0000,  0.0000)
  43 N      8.741699    3.608686   20.000000    ( 0.0000,  0.0000,  0.0000)
  44 B      7.496904    4.329912   20.000000    ( 0.0000,  0.0000,  0.0000)
  45 N      7.496827    5.770127   20.000000    ( 0.0000,  0.0000,  0.0000)
  46 B      6.250660    6.492186   20.000000    ( 0.0000,  0.0000,  0.0000)
  47 N      6.249481    7.932824   20.000000    ( 0.0000,  0.0000,  0.0000)
  48 B      4.995056    8.645950   20.000000    ( 0.0000,  0.0000,  0.0000)
  49 N      4.992233   10.078482   20.000000    ( 0.0000,  0.0000,  0.0000)

Unit cell:
           periodic     x           y           z      points  spacing
  1. axis:    yes   12.500000    0.000000    0.000000    56     0.1933
  2. axis:    yes   -6.250000   10.825318    0.000000    56     0.1933
  3. axis:    yes    0.000000    0.000000   40.000000   200     0.2000

  Lengths:  12.500000  12.500000  40.000000
  Angles:   90.000000  90.000000 120.000000

Effective grid spacing dv^(1/3) = 0.2051

     iter     time        total  log10-change:
                         energy   eigst   dens
iter:   1 15:02:38  -416.807571        c
iter:   2 15:02:43  -416.807402        c -3.39
iter:   3 15:02:48  -416.806988c       c -3.45
iter:   4 15:02:52  -416.806970c       c -3.86
iter:   5 15:02:57  -416.806969c       c -4.30c

Converged after 5 iterations.

Dipole moment: (-21.050536, -2.868658, 0.000000) |e|*Ang

Energy contributions relative to reference atoms: (reference = -53326.183398)

Kinetic:       +414.302090
Potential:     -414.595232
External:        +0.000000
XC:            -432.353132
Entropy (-ST):   -0.069315
Local:          +15.873962
SIC:             +0.000000
--------------------------
Free energy:   -416.841626
Extrapolated:  -416.806969

 Band  Eigenvalues  Occupancy
    0    -22.71651    2.00000
    1    -22.04503    2.00000
    2    -22.03399    2.00000
    3    -22.03095    2.00000
    4    -21.97964    2.00000
    5    -21.96973    2.00000
    6    -21.58317    2.00000
    7    -20.69100    2.00000
    8    -20.68490    2.00000
    9    -20.68396    2.00000
   10    -20.61800    2.00000
   11    -20.61417    2.00000
   12    -20.48152    2.00000
   13    -20.20935    2.00000
   14    -20.17220    2.00000
   15    -20.17000    2.00000
   16    -20.13453    2.00000
   17    -20.13318    2.00000
   18    -19.71201    2.00000
   19    -19.37197    2.00000
   20    -19.36908    2.00000
   21    -19.33568    2.00000
   22    -19.33217    2.00000
   23    -19.31380    2.00000
   24    -15.66536    2.00000
   25    -13.55604    2.00000
   26    -13.53064    2.00000
   27    -13.49774    2.00000
   28    -13.49342    2.00000
   29    -13.41216    2.00000
   30    -13.41155    2.00000
   31    -13.15049    2.00000
   32    -13.14806    2.00000
   33    -13.08690    2.00000
   34    -12.97256    2.00000
   35    -12.83826    2.00000
   36    -12.83699    2.00000
   37    -11.56818    2.00000
   38    -11.56723    2.00000
   39    -11.54357    2.00000
   40    -11.43776    2.00000
   41    -11.43141    2.00000
   42    -11.26894    2.00000
   43    -10.99400    2.00000
   44    -10.91634    2.00000
   45    -10.91400    2.00000
   46    -10.90064    2.00000
   47    -10.74511    2.00000
   48    -10.74405    2.00000
   49    -10.22315    2.00000
   50     -9.85134    2.00000
   51     -9.74005    2.00000
   52     -9.73748    2.00000
   53     -9.72442    2.00000
   54     -9.63395    2.00000
   55     -9.62814    2.00000
   56     -9.27246    2.00000
   57     -9.26473    2.00000
   58     -9.26156    2.00000
   59     -9.21835    2.00000
   60     -9.21101    2.00000
   61     -9.06244    2.00000
   62     -9.06138    2.00000
   63     -9.04627    2.00000
   64     -9.02529    2.00000
   65     -9.02406    2.00000
   66     -9.01689    2.00000
   67     -8.97160    2.00000
   68     -8.96836    2.00000
   69     -8.90048    2.00000
   70     -8.88529    2.00000
   71     -8.72497    2.00000
   72     -8.31927    2.00000
   73     -8.31611    2.00000
   74     -7.60658    2.00000
   75     -7.54319    2.00000
   76     -7.53147    2.00000
   77     -7.52671    2.00000
   78     -7.39408    2.00000
   79     -7.38640    2.00000
   80     -7.38610    2.00000
   81     -7.33661    2.00000
   82     -7.33435    2.00000
   83     -7.16074    2.00000
   84     -6.91613    2.00000
   85     -6.90931    2.00000
   86     -6.67776    2.00000
   87     -6.64334    2.00000
   88     -6.64047    2.00000
   89     -6.62388    2.00000
   90     -6.62199    2.00000
   91     -6.21261    2.00000
   92     -5.86447    2.00000
   93     -5.85357    2.00000
   94     -5.38573    2.00000
   95     -5.38508    2.00000
   96     -5.33470    2.00000
   97     -5.33422    2.00000
   98     -5.31979    2.00000
   99     -4.26121    1.00000
  100     -0.14567    0.00000
  101     -0.12829    0.00000
  102     -0.09933    0.00000
  103     -0.09523    0.00000
  104      0.00678    0.00000
  105      0.00975    0.00000
  106      0.96143    0.00000
  107      0.98567    0.00000
  108      0.99015    0.00000
  109      1.08049    0.00000
  110      1.08716    0.00000
  111      1.16830    0.00000
  112      2.29141    0.00000
  113      2.29188    0.00000
  114      2.35428    0.00000
  115      2.36533    0.00000
  116      2.36614    0.00000
  117      2.65097    0.00000
  118      3.30870    0.00000
  119      3.59893    0.00000
  120      3.60225    0.00000
  121      3.60676    0.00000
  122      3.65831    0.00000
  123      3.65893    0.00000

Fermi level: -4.26121

Gap: 4.116 eV
Transition (v -> c):
  (s=0, k=0, n=99, [0.00, 0.00, 0.00]) -> (s=0, k=0, n=100, [0.00, 0.00, 0.00])
No difference between direct/indirect transitions

Forces in eV/Ang:
  0 B     0.00851   -0.01088    0.00000
  1 C     0.00903    0.01211    0.00000
  2 B     0.00274    0.01440    0.00000
  3 N     0.01448   -0.00006    0.00000
  4 B    -0.00098   -0.00479    0.00000
  5 N     0.00328   -0.00873    0.00000
  6 B    -0.00207    0.00207    0.00000
  7 N    -0.01565    0.00463    0.00000
  8 B    -0.00907    0.01020    0.00000
  9 N    -0.00768    0.01981    0.00000
 10 B     0.01084    0.00424    0.00000
 11 N    -0.00282    0.00149    0.00000
 12 B     0.01651    0.01863    0.00000
 13 N    -0.00012    0.00371    0.00000
 14 B     0.00854    0.01955    0.00000
 15 N     0.00227    0.01186    0.00000
 16 B     0.00324    0.02936    0.00000
 17 N     0.02195    0.01442    0.00000
 18 B     0.01643   -0.00237    0.00000
 19 N    -0.00405    0.00174    0.00000
 20 B     0.01859   -0.00776    0.00000
 21 N    -0.00846    0.01139    0.00000
 22 B    -0.01236    0.00527    0.00000
 23 N     0.03062    0.02633    0.00000
 24 B     0.01378    0.00166    0.00000
 25 N     0.00060    0.00052    0.00000
 26 B    -0.00257    0.03303    0.00000
 27 N    -0.02146    0.01832    0.00000
 28 B    -0.00019    0.00233    0.00000
 29 N     0.00295   -0.03067    0.00000
 30 B    -0.01349   -0.00914    0.00000
 31 N     0.02426    0.01274    0.00000
 32 B     0.00872    0.00692    0.00000
 33 N     0.00455    0.01600    0.00000
 34 B     0.03749    0.01529    0.00000
 35 N     0.00551    0.00450    0.00000
 36 B     0.00552    0.00702    0.00000
 37 N     0.01948    0.01244    0.00000
 38 B    -0.01372   -0.00054    0.00000
 39 N     0.01316    0.00340    0.00000
 40 B     0.00244    0.00143    0.00000
 41 N     0.02266    0.00172    0.00000
 42 B     0.02668    0.00387    0.00000
 43 N    -0.01559    0.02031    0.00000
 44 B    -0.02849    0.01153    0.00000
 45 N    -0.00184    0.00217    0.00000
 46 B     0.00093   -0.03132    0.00000
 47 N     0.00142   -0.02619    0.00000
 48 B     0.01553    0.01101    0.00000
 49 N     0.01964    0.02352    0.00000

Writing to /Users/denniswayo/gpaw-DFT/emitter2chip/hBN_5x5_CN/hBN_5x5_CN_lcao.gpw (mode='all')

Timing:                                       incl.     excl.
--------------------------------------------------------------------
Basic WFS set positions:                      0.022     0.006   0.0% |
 Redistribute:                                0.016     0.016   0.0% |
Basis functions set positions:                2.515     2.515   0.9% |
Forces:                                      58.043     0.667   0.2% |
 LCAO forces:                                57.376     0.013   0.0% |
  Atomic Hamiltonian force:                   1.132     1.132   0.4% |
  Initial:                                    0.068     0.000   0.0% |
   Get density matrix:                        0.068     0.068   0.0% |
  Paw correction:                             1.134     1.134   0.4% |
  Potential:                                 49.064    49.064  17.1% |------|
  TCI derivative:                             5.966     5.966   2.1% ||
  Wait for sum:                               0.000     0.000   0.0% |
LCAO WFS Initialize:                         17.339     0.195   0.1% |
 Density initialized from wave functions:     5.641     0.457   0.2% |
  Calculate density matrix:                   0.036     0.036   0.0% |
  Construct density:                          5.148     5.148   1.8% ||
  Symmetrize density:                         0.000     0.000   0.0% |
 Hamiltonian:                                11.503     0.001   0.0% |
  Atomic:                                     3.646     0.014   0.0% |
   XC Correction:                             3.632     3.632   1.3% ||
  Calculate atomic Hamiltonians:              0.041     0.041   0.0% |
  Communicate:                                0.000     0.000   0.0% |
  Hartree integrate/restrict:                 0.196     0.196   0.1% |
  Initialize Hamiltonian:                     0.000     0.000   0.0% |
  Poisson:                                    2.828     0.195   0.1% |
   Communicate from 1D:                       0.235     0.235   0.1% |
   Communicate from 2D:                       0.177     0.177   0.1% |
   Communicate to 1D:                         0.129     0.129   0.0% |
   Communicate to 2D:                         0.696     0.696   0.2% |
   FFT 1D:                                    0.365     0.365   0.1% |
   FFT 2D:                                    1.031     1.031   0.4% |
  XC 3D grid:                                 4.724     4.724   1.6% ||
  vbar:                                       0.069     0.069   0.0% |
P tci:                                        3.117     3.117   1.1% |
Redistribute:                                 0.001     0.001   0.0% |
SCF-cycle:                                  200.875     0.048   0.0% |
 Density:                                    46.645     0.001   0.0% |
  Atomic density matrices:                    0.116     0.116   0.0% |
  Mix:                                        4.579     4.579   1.6% ||
  Multipole moments:                          0.024     0.024   0.0% |
  Normalize:                                  0.011     0.011   0.0% |
  Pseudo density:                            41.913     0.050   0.0% |
   Calculate density matrix:                  0.221     0.221   0.1% |
   Construct density:                        41.640    41.640  14.5% |-----|
   Symmetrize density:                        0.002     0.002   0.0% |
 Hamiltonian:                                73.820     0.005   0.0% |
  Atomic:                                    24.302     0.102   0.0% |
   XC Correction:                            24.200    24.200   8.4% |--|
  Calculate atomic Hamiltonians:              0.380     0.380   0.1% |
  Communicate:                                0.000     0.000   0.0% |
  Hartree integrate/restrict:                 1.113     1.113   0.4% |
  Poisson:                                   17.244     1.056   0.4% |
   Communicate from 1D:                       1.487     1.487   0.5% |
   Communicate from 2D:                       1.240     1.240   0.4% |
   Communicate to 1D:                         0.914     0.914   0.3% |
   Communicate to 2D:                         3.389     3.389   1.2% |
   FFT 1D:                                    2.532     2.532   0.9% |
   FFT 2D:                                    6.626     6.626   2.3% ||
  XC 3D grid:                                29.956    29.956  10.4% |---|
  vbar:                                       0.819     0.819   0.3% |
 LCAO eigensolver:                           80.362     0.040   0.0% |
  Calculate projections:                      0.348     0.348   0.1% |
  DenseAtomicCorrection:                      1.721     1.721   0.6% |
  Distribute overlap matrix:                  0.001     0.001   0.0% |
  Orbital Layouts:                           10.064    10.064   3.5% ||
  Potential matrix:                          68.188    68.188  23.7% |--------|
ST tci:                                       0.920     0.920   0.3% |
Set symmetry:                                 0.000     0.000   0.0% |
TCI: Evaluate splines:                        0.372     0.372   0.1% |
mktci:                                        0.132     0.132   0.0% |
Other:                                        3.867     3.867   1.3% ||
--------------------------------------------------------------------
Total:                                                287.204 100.0%

Memory usage: 1.89 GiB
Date: Mon Dec 15 15:03:06 2025
