
  ___ ___ ___ _ _ _  
 |   |   |_  | | | | 
 | | | | | . | | | | 
 |__ |  _|___|_____|  25.1.0
 |___|_|             

User:   denniswayo@Delas-MacBook-Pro.local
Date:   Mon Dec 15 15:03:10 2025
Arch:   x86_64
Pid:    37091
CWD:    /Users/denniswayo/gpaw-DFT/emitter2chip
Python: 3.9.22
gpaw:   /Users/denniswayo/miniforge-x86_64/envs/gpaw-tddft-legacy/lib/python3.9/site-packages/gpaw
_gpaw:  /Users/denniswayo/miniforge-x86_64/envs/gpaw-tddft-legacy/lib/python3.9/site-packages/
        _gpaw.cpython-39-darwin.so
ase:    /Users/denniswayo/miniforge-x86_64/envs/gpaw-tddft-legacy/lib/python3.9/site-packages/ase (version 3.25.0)
numpy:  /Users/denniswayo/miniforge-x86_64/envs/gpaw-tddft-legacy/lib/python3.9/site-packages/numpy (version 1.26.4)
scipy:  /Users/denniswayo/miniforge-x86_64/envs/gpaw-tddft-legacy/lib/python3.9/site-packages/scipy (version 1.13.1)
libxc:  5.1.7
units:  Angstrom and eV
cores: 1
OpenMP: False
OMP_NUM_THREADS: 1

Reading from /Users/denniswayo/gpaw-DFT/emitter2chip/hBN_5x5_CN/hBN_5x5_CN_lcao.gpw
Read dipole, energy, forces, free_energy, magmom, magmoms
Reading input parameters:
  basis: dzp
  kpts: [1 1 1]
  mode: lcao
  occupations: {name: fermi-dirac,
                width: 0.05}
  spinpol: False
  symmetry: off
  xc: PBE

Initialize ...

species:
  B:
    name: Boron
    id: 6e91439235a05fd7549e31636e8f777c
    Z: 5.0
    valence: 3
    core: 2
    charge: 0.0
    file: /Users/denniswayo/miniforge-x86_64/envs/gpaw-tddft-legacy/lib/python3.9/site-packages/gpaw_data/setups/gpaw-setups-0.9.20000/B.PBE.gz
    compensation charges: {type: gauss,
                           rc: 0.20,
                           lmax: 2}
    cutoffs: {filter: 1.14,
              core: 1.38}
    projectors:
      #              energy  rcut
      - 2s(2.00)    -9.443   0.635
      - 2p(1.00)    -3.606   0.635
      -  s          17.768   0.635
      -  p          23.605   0.635
      -  d           0.000   0.635
  
    # LCAO basis set for B:
    #   Name: dzp
    #   File: /Users/denniswayo/miniforge-x86_64/envs/gpaw-tddft-legacy/lib/python3.9/site-packages/gpaw_data/setups/gpaw-setups-0.9.20000/B.dzp.basis.gz
    #   Number of radial functions: 5
    #   Number of spherical harmonics: 13
    #     l=0, rc=6.6719 Bohr: 2s-sz confined orbital
    #     l=1, rc=8.2188 Bohr: 2p-sz confined orbital
    #     l=0, rc=3.7500 Bohr: 2s-dz split-valence wave
    #     l=1, rc=4.6094 Bohr: 2p-dz split-valence wave
    #     l=2, rc=8.2188 Bohr: d-type Gaussian polarization
    #   Number of RI-basis functions 0

  C:
    name: Carbon
    id: 4aa54d4b901d75f77cc0ea3eec22967b
    Z: 6.0
    valence: 4
    core: 2
    charge: 0.0
    file: /Users/denniswayo/miniforge-x86_64/envs/gpaw-tddft-legacy/lib/python3.9/site-packages/gpaw_data/setups/gpaw-setups-0.9.20000/C.PBE.gz
    compensation charges: {type: gauss,
                           rc: 0.20,
                           lmax: 2}
    cutoffs: {filter: 1.14,
              core: 1.14}
    projectors:
      #              energy  rcut
      - 2s(2.00)   -13.751   0.635
      - 2p(2.00)    -5.284   0.635
      -  s          13.461   0.635
      -  p          21.927   0.635
      -  d           0.000   0.635
  
    # LCAO basis set for C:
    #   Name: dzp
    #   File: /Users/denniswayo/miniforge-x86_64/envs/gpaw-tddft-legacy/lib/python3.9/site-packages/gpaw_data/setups/gpaw-setups-0.9.20000/C.dzp.basis.gz
    #   Number of radial functions: 5
    #   Number of spherical harmonics: 13
    #     l=0, rc=5.5469 Bohr: 2s-sz confined orbital
    #     l=1, rc=6.6719 Bohr: 2p-sz confined orbital
    #     l=0, rc=3.0312 Bohr: 2s-dz split-valence wave
    #     l=1, rc=3.7500 Bohr: 2p-dz split-valence wave
    #     l=2, rc=6.6719 Bohr: d-type Gaussian polarization
    #   Number of RI-basis functions 0

  N:
    name: Nitrogen
    id: f7500608b86eaa90eef8b1d9a670dc53
    Z: 7.0
    valence: 5
    core: 2
    charge: 0.0
    file: /Users/denniswayo/miniforge-x86_64/envs/gpaw-tddft-legacy/lib/python3.9/site-packages/gpaw_data/setups/gpaw-setups-0.9.20000/N.PBE.gz
    compensation charges: {type: gauss,
                           rc: 0.18,
                           lmax: 2}
    cutoffs: {filter: 1.11,
              core: 0.96}
    projectors:
      #              energy  rcut
      - 2s(2.00)   -18.583   0.603
      - 2p(3.00)    -7.089   0.529
      -  s           8.629   0.603
      -  p          20.123   0.529
      -  d           0.000   0.577
  
    # LCAO basis set for N:
    #   Name: dzp
    #   File: /Users/denniswayo/miniforge-x86_64/envs/gpaw-tddft-legacy/lib/python3.9/site-packages/gpaw_data/setups/gpaw-setups-0.9.20000/N.dzp.basis.gz
    #   Number of radial functions: 5
    #   Number of spherical harmonics: 13
    #     l=0, rc=4.8594 Bohr: 2s-sz confined orbital
    #     l=1, rc=6.0625 Bohr: 2p-sz confined orbital
    #     l=0, rc=2.6094 Bohr: 2s-dz split-valence wave
    #     l=1, rc=3.2656 Bohr: 2p-dz split-valence wave
    #     l=2, rc=6.0625 Bohr: d-type Gaussian polarization
    #   Number of RI-basis functions 0

Reference energy: -53326.183398  # eV

Spin-paired calculation

Convergence criteria:
 Maximum [total energy] change in last 3 cyles: 0.0005 eV / valence electron
 Maximum integral of absolute [dens]ity change: 0.0001 electrons / valence electron
 Maximum integral of absolute [eigenst]ate change: 4e-08 eV^2 / valence electron
 Maximum number of scf [iter]ations: 333
 (Square brackets indicate name in SCF output, whereas a 'c' in
 the SCF output indicates the quantity has converged.)

Symmetries present (total): 1

  ( 1  0  0)
  ( 0  1  0)
  ( 0  0  1)

1 k-point (Gamma)
1 k-point in the irreducible part of the Brillouin zone
       k-points in crystal coordinates                weights
   0:     0.00000000    0.00000000    0.00000000          1/1

Wave functions: LCAO
  Diagonalizer: Serial LAPACK
  Atomic Correction: dense with blas
  Data-type: float
 

Occupation numbers: Fermi-Dirac:
  width: 0.0500  # eV
 

Eigensolver
   LCAO using direct dense diagonalizer 

Densities:
  Coarse grid: 56*56*200 grid
  Fine grid: 112*112*400 grid
  Total Charge: 0.000000 

Density mixing:
  Method: separate
  Backend: pulay
  Linear mixing parameter: 0.05
  old densities: 5
  Damping of long wavelength oscillations: 50 

Hamiltonian:
  XC and Coulomb potentials evaluated on a 112*112*400 grid
  Using the PBE Exchange-Correlation functional
  Interpolation: tri-quintic (5. degree polynomial)
  Poisson solver: FastPoissonSolver using
    Stencil: 8*3+1=25 point O(h^6) finite-difference Laplacian
    FFT axes: [0, 1, 2]
    FST axes: []
 

XC parameters: PBE with 2 nearest neighbor stencil

Memory estimate:
  Process memory now: 1932.24 MiB
  Calculator: 386.81 MiB
    Density: 198.03 MiB
      Arrays: 124.41 MiB
      Localized functions: 25.77 MiB
      Mixer: 47.85 MiB
    Hamiltonian: 83.46 MiB
      Arrays: 81.35 MiB
      XC: 0.00 MiB
      Poisson: 0.00 MiB
      vbar: 2.12 MiB
    Wavefunctions: 105.32 MiB
      C [qnM]: 0.61 MiB
      S, T [2 x qmm]: 6.45 MiB
      P [aqMi]: 0.40 MiB
      BasisFunctions: 97.85 MiB
      Eigensolver: 0.00 MiB

Total number of cores used: 1

Number of atoms: 50
Number of atomic orbitals: 650
Number of bands in calculation: 124
Number of valence electrons: 199
Bands to converge: occupied

... initialized

Input parameters:
  convergence: {density: 0.005,
                energy: 0.005}
  h: 0.25
  mode: fd
  nbands: 109
  occupations: {fixmagmom: False,
                name: fermi-dirac,
                width: 0.1}

Initialize ...

species:
  B:
    name: Boron
    id: 6e91439235a05fd7549e31636e8f777c
    Z: 5.0
    valence: 3
    core: 2
    charge: 0.0
    file: /Users/denniswayo/miniforge-x86_64/envs/gpaw-tddft-legacy/lib/python3.9/site-packages/gpaw_data/setups/gpaw-setups-0.9.20000/B.PBE.gz
    compensation charges: {type: gauss,
                           rc: 0.20,
                           lmax: 2}
    cutoffs: {filter: 1.14,
              core: 1.38}
    projectors:
      #              energy  rcut
      - 2s(2.00)    -9.443   0.635
      - 2p(1.00)    -3.606   0.635
      -  s          17.768   0.635
      -  p          23.605   0.635
      -  d           0.000   0.635
  
    # LCAO basis set for B:
    #   Name: dzp
    #   File: /Users/denniswayo/miniforge-x86_64/envs/gpaw-tddft-legacy/lib/python3.9/site-packages/gpaw_data/setups/gpaw-setups-0.9.20000/B.dzp.basis.gz
    #   Number of radial functions: 5
    #   Number of spherical harmonics: 13
    #     l=0, rc=6.6719 Bohr: 2s-sz confined orbital
    #     l=1, rc=8.2188 Bohr: 2p-sz confined orbital
    #     l=0, rc=3.7500 Bohr: 2s-dz split-valence wave
    #     l=1, rc=4.6094 Bohr: 2p-dz split-valence wave
    #     l=2, rc=8.2188 Bohr: d-type Gaussian polarization
    #   Number of RI-basis functions 0

  C:
    name: Carbon
    id: 4aa54d4b901d75f77cc0ea3eec22967b
    Z: 6.0
    valence: 4
    core: 2
    charge: 0.0
    file: /Users/denniswayo/miniforge-x86_64/envs/gpaw-tddft-legacy/lib/python3.9/site-packages/gpaw_data/setups/gpaw-setups-0.9.20000/C.PBE.gz
    compensation charges: {type: gauss,
                           rc: 0.20,
                           lmax: 2}
    cutoffs: {filter: 1.14,
              core: 1.14}
    projectors:
      #              energy  rcut
      - 2s(2.00)   -13.751   0.635
      - 2p(2.00)    -5.284   0.635
      -  s          13.461   0.635
      -  p          21.927   0.635
      -  d           0.000   0.635
  
    # LCAO basis set for C:
    #   Name: dzp
    #   File: /Users/denniswayo/miniforge-x86_64/envs/gpaw-tddft-legacy/lib/python3.9/site-packages/gpaw_data/setups/gpaw-setups-0.9.20000/C.dzp.basis.gz
    #   Number of radial functions: 5
    #   Number of spherical harmonics: 13
    #     l=0, rc=5.5469 Bohr: 2s-sz confined orbital
    #     l=1, rc=6.6719 Bohr: 2p-sz confined orbital
    #     l=0, rc=3.0312 Bohr: 2s-dz split-valence wave
    #     l=1, rc=3.7500 Bohr: 2p-dz split-valence wave
    #     l=2, rc=6.6719 Bohr: d-type Gaussian polarization
    #   Number of RI-basis functions 0

  N:
    name: Nitrogen
    id: f7500608b86eaa90eef8b1d9a670dc53
    Z: 7.0
    valence: 5
    core: 2
    charge: 0.0
    file: /Users/denniswayo/miniforge-x86_64/envs/gpaw-tddft-legacy/lib/python3.9/site-packages/gpaw_data/setups/gpaw-setups-0.9.20000/N.PBE.gz
    compensation charges: {type: gauss,
                           rc: 0.18,
                           lmax: 2}
    cutoffs: {filter: 1.11,
              core: 0.96}
    projectors:
      #              energy  rcut
      - 2s(2.00)   -18.583   0.603
      - 2p(3.00)    -7.089   0.529
      -  s           8.629   0.603
      -  p          20.123   0.529
      -  d           0.000   0.577
  
    # LCAO basis set for N:
    #   Name: dzp
    #   File: /Users/denniswayo/miniforge-x86_64/envs/gpaw-tddft-legacy/lib/python3.9/site-packages/gpaw_data/setups/gpaw-setups-0.9.20000/N.dzp.basis.gz
    #   Number of radial functions: 5
    #   Number of spherical harmonics: 13
    #     l=0, rc=4.8594 Bohr: 2s-sz confined orbital
    #     l=1, rc=6.0625 Bohr: 2p-sz confined orbital
    #     l=0, rc=2.6094 Bohr: 2s-dz split-valence wave
    #     l=1, rc=3.2656 Bohr: 2p-dz split-valence wave
    #     l=2, rc=6.0625 Bohr: d-type Gaussian polarization
    #   Number of RI-basis functions 0

Reference energy: -53326.183398  # eV

Spin-paired calculation

Convergence criteria:
 Maximum [total energy] change in last 3 cyles: 0.005 eV / valence electron
 Maximum integral of absolute [dens]ity change: 0.005 electrons / valence electron
 Maximum integral of absolute [eigenst]ate change: 4e-08 eV^2 / valence electron
 Maximum number of scf [iter]ations: 333
 (Square brackets indicate name in SCF output, whereas a 'c' in
 the SCF output indicates the quantity has converged.)

Symmetries present (total): 1

  ( 1  0  0)
  ( 0  1  0)
  ( 0  0  1)

1 k-point (Gamma)
1 k-point in the irreducible part of the Brillouin zone
       k-points in crystal coordinates                weights
   0:     0.00000000    0.00000000    0.00000000          1/1

Wave functions: Uniform real-space grid
  Kinetic energy operator: 8*3+1=25 point O(h^6) finite-difference Laplacian
  ScaLapack parameters: grid=1x1, blocksize=None
  Wavefunction extrapolation:
    Improved wavefunction reuse through dual PAW basis 

Occupation numbers: Fermi-Dirac:
  width: 0.1000  # eV
 

Eigensolver
   Davidson(niter=2) 

Densities:
  Coarse grid: 44*44*160 grid
  Fine grid: 88*88*320 grid
  Total Charge: 0.000000 

Density mixing:
  Method: separate
  Backend: pulay
  Linear mixing parameter: 0.05
  old densities: 5
  Damping of long wavelength oscillations: 50 

Hamiltonian:
  XC and Coulomb potentials evaluated on a 88*88*320 grid
  Using the PBE Exchange-Correlation functional
  Interpolation: tri-quintic (5. degree polynomial)
  Poisson solver: FastPoissonSolver using
    Stencil: 8*3+1=25 point O(h^6) finite-difference Laplacian
    FFT axes: [0, 1, 2]
    FST axes: []
 

XC parameters: PBE with 2 nearest neighbor stencil

Memory estimate:
  Process memory now: 1932.24 MiB
  Calculator: 669.18 MiB
    Density: 97.80 MiB
      Arrays: 61.45 MiB
      Localized functions: 12.73 MiB
      Mixer: 23.63 MiB
    Hamiltonian: 41.22 MiB
      Arrays: 40.18 MiB
      XC: 0.00 MiB
      Poisson: 0.00 MiB
      vbar: 1.04 MiB
    Wavefunctions: 530.16 MiB
      Arrays psit_nG: 257.60 MiB
      Eigensolver: 270.32 MiB
      Projections: 0.54 MiB
      Projectors: 1.70 MiB

Total number of cores used: 1

Number of atoms: 50
Number of atomic orbitals: 650
Number of bands in calculation: 109
Number of valence electrons: 199
Bands to converge: occupied

... initialized

Initializing position-dependent things.

Density initialized from atomic densities
Creating initial wave functions:
  109 bands from LCAO basis set

                                                            
                                                            
                                                            
                                                            
              N     N     N     N     N                     
             B N   B  N  B  N  B  N  B  N                   
              B      B     B     B     B                    
                BN    BN     B     BN    BN                 
                   N     N     N     N      N               
                  B  C  B  N  B  N  B  N   B N              
                    B     B     B     B     B               
                                                            
                                                            
                                                            
                                                            

Positions:
   0 B     -0.000048   -0.050137   20.000000    ( 0.0000,  0.0000,  0.0000)
   1 C     -0.000019    1.443736   20.000000    ( 0.0000,  0.0000,  0.0000)
   2 B     -1.295283    2.189410   20.000000    ( 0.0000,  0.0000,  0.0000)
   3 N     -1.271890    3.626889   20.000000    ( 0.0000,  0.0000,  0.0000)
   4 B     -2.513507    4.340252   20.000000    ( 0.0000,  0.0000,  0.0000)
   5 N     -2.509367    5.777602   20.000000    ( 0.0000,  0.0000,  0.0000)
   6 B     -3.754551    6.492572   20.000000    ( 0.0000,  0.0000,  0.0000)
   7 N     -3.749448    7.930114   20.000000    ( 0.0000,  0.0000,  0.0000)
   8 B     -4.995112    8.644611   20.000000    ( 0.0000,  0.0000,  0.0000)
   9 N     -4.993186   10.076996   20.000000    ( 0.0000,  0.0000,  0.0000)
  10 B      2.498394    0.000870   20.000000    ( 0.0000,  0.0000,  0.0000)
  11 N      2.529831    1.449483   20.000000    ( 0.0000,  0.0000,  0.0000)
  12 B      1.295707    2.189643   20.000000    ( 0.0000,  0.0000,  0.0000)
  13 N      1.270977    3.628026   20.000000    ( 0.0000,  0.0000,  0.0000)
  14 B     -0.000563    4.326489   20.000000    ( 0.0000,  0.0000,  0.0000)
  15 N     -0.000961    5.769815   20.000000    ( 0.0000,  0.0000,  0.0000)
  16 B     -1.254671    6.494160   20.000000    ( 0.0000,  0.0000,  0.0000)
  17 N     -1.252743    7.940207   20.000000    ( 0.0000,  0.0000,  0.0000)
  18 B     -2.503448    8.660127   20.000000    ( 0.0000,  0.0000,  0.0000)
  19 N     -2.501192   10.108480   20.000000    ( 0.0000,  0.0000,  0.0000)
  20 B      5.001755    0.005001   20.000000    ( 0.0000,  0.0000,  0.0000)
  21 N      5.010958    1.446093   20.000000    ( 0.0000,  0.0000,  0.0000)
  22 B      3.769322    2.166776   20.000000    ( 0.0000,  0.0000,  0.0000)
  23 N      3.759494    3.609646   20.000000    ( 0.0000,  0.0000,  0.0000)
  24 B      2.513810    4.341381   20.000000    ( 0.0000,  0.0000,  0.0000)
  25 N      2.509010    5.779828   20.000000    ( 0.0000,  0.0000,  0.0000)
  26 B      1.253952    6.494997   20.000000    ( 0.0000,  0.0000,  0.0000)
  27 N      1.252986    7.941497   20.000000    ( 0.0000,  0.0000,  0.0000)
  28 B      0.000345    8.663863   20.000000    ( 0.0000,  0.0000,  0.0000)
  29 N      0.001259   10.111169   20.000000    ( 0.0000,  0.0000,  0.0000)
  30 B      7.500109    0.005591   20.000000    ( 0.0000,  0.0000,  0.0000)
  31 N      7.492183    1.446145   20.000000    ( 0.0000,  0.0000,  0.0000)
  32 B      6.251469    2.167437   20.000000    ( 0.0000,  0.0000,  0.0000)
  33 N      6.251208    3.608180   20.000000    ( 0.0000,  0.0000,  0.0000)
  34 B      5.005061    4.330327   20.000000    ( 0.0000,  0.0000,  0.0000)
  35 N      5.004135    5.771053   20.000000    ( 0.0000,  0.0000,  0.0000)
  36 B      3.755332    6.493981   20.000000    ( 0.0000,  0.0000,  0.0000)
  37 N      3.749073    7.932100   20.000000    ( 0.0000,  0.0000,  0.0000)
  38 B      2.503792    8.661528   20.000000    ( 0.0000,  0.0000,  0.0000)
  39 N      2.501881   10.109762   20.000000    ( 0.0000,  0.0000,  0.0000)
  40 B     10.001862    0.001800   20.000000    ( 0.0000,  0.0000,  0.0000)
  41 N      9.971330    1.449553   20.000000    ( 0.0000,  0.0000,  0.0000)
  42 B      8.732776    2.166671   20.000000    ( 0.0000,  0.0000,  0.0000)
  43 N      8.741699    3.608686   20.000000    ( 0.0000,  0.0000,  0.0000)
  44 B      7.496904    4.329912   20.000000    ( 0.0000,  0.0000,  0.0000)
  45 N      7.496827    5.770127   20.000000    ( 0.0000,  0.0000,  0.0000)
  46 B      6.250660    6.492186   20.000000    ( 0.0000,  0.0000,  0.0000)
  47 N      6.249481    7.932824   20.000000    ( 0.0000,  0.0000,  0.0000)
  48 B      4.995056    8.645950   20.000000    ( 0.0000,  0.0000,  0.0000)
  49 N      4.992233   10.078482   20.000000    ( 0.0000,  0.0000,  0.0000)

Unit cell:
           periodic     x           y           z      points  spacing
  1. axis:    yes   12.500000    0.000000    0.000000    44     0.2460
  2. axis:    yes   -6.250000   10.825318    0.000000    44     0.2460
  3. axis:    yes    0.000000    0.000000   40.000000   160     0.2500

  Lengths:  12.500000  12.500000  40.000000
  Angles:   90.000000  90.000000 120.000000

Effective grid spacing dv^(1/3) = 0.2595

     iter     time        total  log10-change:
                         energy   eigst   dens
iter:   1 15:03:31  -468.652532
iter:   2 15:03:42  -463.188627   -0.50  -0.73
iter:   3 15:03:53  -447.740890   +0.59  -0.76
iter:   4 15:04:04  -443.563243   -0.30  -1.12
iter:   5 15:04:15  -460.227276   +0.26  -1.17
iter:   6 15:04:26  -440.094164   -0.09  -0.90
iter:   7 15:04:37  -439.032515   +0.17  -1.31
iter:   8 15:04:47  -439.224016   -0.65  -1.83
iter:   9 15:04:58  -439.015867c  -1.54  -1.81
iter:  10 15:05:09  -440.711295   -0.59  -1.97
iter:  11 15:05:20  -439.785024   -1.56  -1.46
iter:  12 15:05:31  -439.017071   -1.34  -1.56
iter:  13 15:05:41  -439.083499c  -0.81  -1.86
iter:  14 15:05:52  -439.035046c  -1.87  -2.06
iter:  15 15:06:02  -438.955574c  -1.84  -2.14
iter:  16 15:06:13  -438.953895c  -3.13  -2.68c
iter:  17 15:06:24  -438.960525c  -2.85  -2.85c
iter:  18 15:06:35  -438.953045c  -3.19  -2.62c
iter:  19 15:06:46  -438.953435c  -3.53  -3.01c
iter:  20 15:06:56  -438.953870c  -3.67  -3.12c
iter:  21 15:07:07  -438.953701c  -4.47  -3.31c
iter:  22 15:07:18  -438.953645c  -4.75  -3.56c
iter:  23 15:07:28  -438.953643c  -5.66  -3.72c
iter:  24 15:07:40  -438.953651c  -5.38  -3.73c
iter:  25 15:07:51  -438.953643c  -5.48  -3.83c
iter:  26 15:08:01  -438.953640c  -6.26  -4.07c
iter:  27 15:08:11  -438.953643c  -6.27  -4.08c
iter:  28 15:08:22  -438.953642c  -6.09  -4.11c
iter:  29 15:08:33  -438.953641c  -6.99  -4.51c
iter:  30 15:08:43  -438.953642c  -6.90  -4.59c
iter:  31 15:08:53  -438.953642c  -7.16  -4.59c
iter:  32 15:09:04  -438.953642c  -7.74c -4.78c

Converged after 32 iterations.

Dipole moment: (-22.896416, -7.388668, -0.000000) |e|*Ang

Energy contributions relative to reference atoms: (reference = -53326.183398)

Kinetic:       +501.573604
Potential:     -542.420903
External:        +0.000000
XC:            -444.136663
Entropy (-ST):   -0.138865
Local:          +46.099751
SIC:             +0.000000
--------------------------
Free energy:   -439.023074
Extrapolated:  -438.953642

 Band  Eigenvalues  Occupancy
    0    -22.57345    2.00000
    1    -21.89548    2.00000
    2    -21.88637    2.00000
    3    -21.87885    2.00000
    4    -21.80413    2.00000
    5    -21.79242    2.00000
    6    -21.40493    2.00000
    7    -20.50198    2.00000
    8    -20.49351    2.00000
    9    -20.48998    2.00000
   10    -20.43556    2.00000
   11    -20.43089    2.00000
   12    -20.30077    2.00000
   13    -20.00114    2.00000
   14    -19.96509    2.00000
   15    -19.96433    2.00000
   16    -19.92857    2.00000
   17    -19.92287    2.00000
   18    -19.49511    2.00000
   19    -19.14880    2.00000
   20    -19.14256    2.00000
   21    -19.11594    2.00000
   22    -19.10909    2.00000
   23    -19.07752    2.00000
   24    -15.56923    2.00000
   25    -13.59322    2.00000
   26    -13.57827    2.00000
   27    -13.51204    2.00000
   28    -13.50163    2.00000
   29    -13.44303    2.00000
   30    -13.43725    2.00000
   31    -13.17089    2.00000
   32    -13.15608    2.00000
   33    -13.08550    2.00000
   34    -12.98435    2.00000
   35    -12.84110    2.00000
   36    -12.83349    2.00000
   37    -11.59184    2.00000
   38    -11.58508    2.00000
   39    -11.56842    2.00000
   40    -11.46800    2.00000
   41    -11.45421    2.00000
   42    -11.31300    2.00000
   43    -11.03187    2.00000
   44    -10.96191    2.00000
   45    -10.95666    2.00000
   46    -10.91748    2.00000
   47    -10.79362    2.00000
   48    -10.78538    2.00000
   49    -10.23855    2.00000
   50     -9.90401    2.00000
   51     -9.81305    2.00000
   52     -9.79774    2.00000
   53     -9.78786    2.00000
   54     -9.70966    2.00000
   55     -9.69447    2.00000
   56     -9.29098    2.00000
   57     -9.28472    2.00000
   58     -9.27645    2.00000
   59     -9.21533    2.00000
   60     -9.20624    2.00000
   61     -9.15883    2.00000
   62     -9.14650    2.00000
   63     -9.12712    2.00000
   64     -9.10977    2.00000
   65     -9.09203    2.00000
   66     -9.08957    2.00000
   67     -9.04797    2.00000
   68     -9.02994    2.00000
   69     -8.95779    2.00000
   70     -8.88333    2.00000
   71     -8.77730    2.00000
   72     -8.41321    2.00000
   73     -8.40607    2.00000
   74     -7.70719    2.00000
   75     -7.64569    2.00000
   76     -7.64227    2.00000
   77     -7.61513    2.00000
   78     -7.39650    2.00000
   79     -7.38637    2.00000
   80     -7.38609    2.00000
   81     -7.34341    2.00000
   82     -7.33933    2.00000
   83     -7.17646    2.00000
   84     -7.04677    2.00000
   85     -7.01818    2.00000
   86     -6.68523    2.00000
   87     -6.64308    2.00000
   88     -6.64155    2.00000
   89     -6.63261    2.00000
   90     -6.63140    2.00000
   91     -6.22120    2.00000
   92     -5.94930    2.00000
   93     -5.91348    2.00000
   94     -5.40427    1.99997
   95     -5.40155    1.99997
   96     -5.35668    1.99996
   97     -5.35453    1.99996
   98     -5.32247    1.99994
   99     -4.28081    1.00020
  100     -0.23063    0.00000
  101     -0.21695    0.00000
  102     -0.18271    0.00000
  103     -0.17218    0.00000
  104     -0.06387    0.00000
  105     -0.06063    0.00000
  106      0.79961    0.00000
  107      0.88033    0.00000
  108      0.90404    0.00000

Fermi level: -4.28077

Gap: 4.050 eV
Transition (v -> c):
  (s=0, k=0, n=99, [0.00, 0.00, 0.00]) -> (s=0, k=0, n=100, [0.00, 0.00, 0.00])
No difference between direct/indirect transitions
Writing to /Users/denniswayo/gpaw-DFT/emitter2chip/hBN_5x5_CN/hBN_5x5_CN_fd.gpw (mode='all')

Timing:                              incl.     excl.
-----------------------------------------------------------
Hamiltonian:                         1.475     0.000   0.0% |
 Atomic:                             0.791     0.002   0.0% |
  XC Correction:                     0.788     0.788   0.2% |
 Calculate atomic Hamiltonians:      0.005     0.005   0.0% |
 Communicate:                        0.000     0.000   0.0% |
 Hartree integrate/restrict:         0.045     0.045   0.0% |
 Initialize Hamiltonian:             0.000     0.000   0.0% |
 Poisson:                            0.257     0.026   0.0% |
  Communicate from 1D:               0.035     0.035   0.0% |
  Communicate from 2D:               0.015     0.015   0.0% |
  Communicate to 1D:                 0.012     0.012   0.0% |
  Communicate to 2D:                 0.050     0.050   0.0% |
  FFT 1D:                            0.027     0.027   0.0% |
  FFT 2D:                            0.093     0.093   0.0% |
 XC 3D grid:                         0.370     0.370   0.1% |
 vbar:                               0.007     0.007   0.0% |
LCAO initialization:                 3.953     0.335   0.1% |
 LCAO eigensolver:                   1.012     0.000   0.0% |
  Calculate projections:             0.007     0.007   0.0% |
  DenseAtomicCorrection:             0.036     0.036   0.0% |
  Distribute overlap matrix:         0.000     0.000   0.0% |
  Orbital Layouts:                   0.209     0.209   0.1% |
  Potential matrix:                  0.761     0.761   0.2% |
 LCAO to grid:                       1.734     1.734   0.5% |
 Set positions (LCAO WFS):           0.872     0.121   0.0% |
  Basic WFS set positions:           0.001     0.001   0.0% |
  Basis functions set positions:     0.000     0.000   0.0% |
  P tci:                             0.595     0.595   0.2% |
  ST tci:                            0.140     0.140   0.0% |
  mktci:                             0.014     0.014   0.0% |
Redistribute:                        0.000     0.000   0.0% |
SCF-cycle:                         344.557     0.078   0.0% |
 Davidson:                         301.216    47.602  13.4% |----|
  Apply hamiltonian:                12.588    12.588   3.6% ||
  Subspace diag:                    58.497     0.006   0.0% |
   calc_h_matrix:                   29.152    14.497   4.1% |-|
    Apply hamiltonian:              14.655    14.655   4.1% |-|
   diagonalize:                      0.090     0.090   0.0% |
   rotate_psi:                      29.249    29.249   8.3% |--|
  calc. matrices:                  125.649   100.532  28.4% |----------|
   Apply hamiltonian:               25.116    25.116   7.1% |--|
  diagonalize:                       1.121     1.121   0.3% |
  rotate_psi:                       55.759    55.759  15.7% |-----|
 Density:                            2.656     0.000   0.0% |
  Atomic density matrices:           0.089     0.089   0.0% |
  Mix:                               2.160     2.160   0.6% |
  Multipole moments:                 0.022     0.022   0.0% |
  Pseudo density:                    0.385     0.382   0.1% |
   Symmetrize density:               0.002     0.002   0.0% |
 Hamiltonian:                       39.728     0.004   0.0% |
  Atomic:                           18.733     0.085   0.0% |
   XC Correction:                   18.647    18.647   5.3% |-|
  Calculate atomic Hamiltonians:     0.117     0.117   0.0% |
  Communicate:                       0.000     0.000   0.0% |
  Hartree integrate/restrict:        0.373     0.373   0.1% |
  Poisson:                           7.898     0.576   0.2% |
   Communicate from 1D:              0.932     0.932   0.3% |
   Communicate from 2D:              0.455     0.455   0.1% |
   Communicate to 1D:                0.348     0.348   0.1% |
   Communicate to 2D:                1.577     1.577   0.4% |
   FFT 1D:                           0.883     0.883   0.2% |
   FFT 2D:                           3.127     3.127   0.9% |
  XC 3D grid:                       12.050    12.050   3.4% ||
  vbar:                              0.551     0.551   0.2% |
 Orthonormalize:                     0.879     0.000   0.0% |
  calc_s_matrix:                     0.243     0.243   0.1% |
  inverse-cholesky:                  0.003     0.003   0.0% |
  projections:                       0.074     0.074   0.0% |
  rotate_psi_s:                      0.558     0.558   0.2% |
Set symmetry:                        0.000     0.000   0.0% |
TCI: Evaluate splines:               0.334     0.334   0.1% |
Other:                               4.168     4.168   1.2% |
-----------------------------------------------------------
Total:                                       354.488 100.0%

Memory usage: 1.89 GiB
Date: Mon Dec 15 15:09:04 2025
