50
Lattice="12.5 0.0 0.0 -6.250000000000001 10.825317547305481 0.0 0.0 0.0 40.0" Properties=species:S:1:pos:R:3:spacegroup_kinds:I:1:magmoms:R:1:forces:R:3 spacegroup="P 1" unit_cell=conventional occupancy="_JSON {\"0\": {\"B\": 1.0}, \"1\": {\"N\": 1.0}, \"2\": {\"B\": 1.0}, \"3\": {\"N\": 1.0}, \"4\": {\"B\": 1.0}, \"5\": {\"N\": 1.0}, \"6\": {\"B\": 1.0}, \"7\": {\"N\": 1.0}, \"8\": {\"B\": 1.0}, \"9\": {\"N\": 1.0}, \"10\": {\"B\": 1.0}, \"11\": {\"N\": 1.0}, \"12\": {\"B\": 1.0}, \"13\": {\"N\": 1.0}, \"14\": {\"B\": 1.0}, \"15\": {\"N\": 1.0}, \"16\": {\"B\": 1.0}, \"17\": {\"N\": 1.0}, \"18\": {\"B\": 1.0}, \"19\": {\"N\": 1.0}, \"20\": {\"B\": 1.0}, \"21\": {\"N\": 1.0}, \"22\": {\"B\": 1.0}, \"23\": {\"N\": 1.0}, \"24\": {\"B\": 1.0}, \"25\": {\"N\": 1.0}, \"26\": {\"B\": 1.0}, \"27\": {\"N\": 1.0}, \"28\": {\"B\": 1.0}, \"29\": {\"N\": 1.0}, \"30\": {\"B\": 1.0}, \"31\": {\"N\": 1.0}, \"32\": {\"B\": 1.0}, \"33\": {\"N\": 1.0}, \"34\": {\"B\": 1.0}, \"35\": {\"N\": 1.0}, \"36\": {\"B\": 1.0}, \"37\": {\"N\": 1.0}, \"38\": {\"B\": 1.0}, \"39\": {\"N\": 1.0}, \"40\": {\"B\": 1.0}, \"41\": {\"N\": 1.0}, \"42\": {\"B\": 1.0}, \"43\": {\"N\": 1.0}, \"44\": {\"B\": 1.0}, \"45\": {\"N\": 1.0}, \"46\": {\"B\": 1.0}, \"47\": {\"N\": 1.0}, \"48\": {\"B\": 1.0}, \"49\": {\"N\": 1.0}}" energy=-420.15064555765053 free_energy=-420.15064555766014 dipole="-24.197635540032113 -5.86219313081792 1.1169578062010161e-10" magmom=0.0 pbc="T T T"
B       -0.00018962       0.00011396      20.00000000        0       0.00000000      -0.02096254       0.01197670       0.00000000
N       -0.00124056       1.44284807      20.00000000        1       0.00000000       0.00743876      -0.00391309       0.00000000
B       -1.25019294       2.16396917      20.00000000        2       0.00000000      -0.02489060      -0.03065182       0.00000000
N       -1.25322181       3.60562722      20.00000000        3       0.00000000       0.00279312      -0.01589428       0.00000000
B       -2.50117966       4.32851275      20.00000000        4       0.00000000      -0.06462166      -0.06112702       0.00000000
N       -2.50452079       5.77009799      20.00000000        5       0.00000000       0.01586931      -0.00226960       0.00000000
B       -3.75130487       6.49424734      20.00000000        6       0.00000000      -0.06975920      -0.03015521       0.00000000
N       -3.75325070       7.93752692      20.00000000        7       0.00000000      -0.00508618      -0.00178848       0.00000000
B       -5.00066124       8.66070757      20.00000000        8       0.00000000      -0.03689548       0.01787054       0.00000000
N       -5.00148754      10.10448420      20.00000000        9       0.00000000       0.00644985      -0.00356394       0.00000000
B        2.49928021       0.00035220      20.00000000       10       0.00000000      -0.03403907       0.02280575       0.00000000
N        2.49917281       1.44340282      20.00000000       11       0.00000000       0.01180592       0.00178064       0.00000000
B        1.24974557       2.16394004      20.00000000       12       0.00000000      -0.01857541      -0.03097125       0.00000000
N        1.25113154       3.60606139      20.00000000       13       0.00000000       0.00603070      -0.01279412       0.00000000
B       -0.00024721       4.32808004      20.00000000       14       0.00000000      -0.02882950      -0.07757618       0.00000000
N       -0.00069374       5.77102389      20.00000000       15       0.00000000       0.00373447      -0.01173884       0.00000000
B       -1.25101651       6.49427820      20.00000000       16       0.00000000      -0.06758659      -0.03556379       0.00000000
N       -1.25183864       7.93962289      20.00000000       17       0.00000000       0.00135765      -0.00065105       0.00000000
B       -2.50121916       8.66096223      20.00000000       18       0.00000000      -0.06613336       0.03801509       0.00000000
N       -2.50072939      10.10695692      20.00000000       19       0.00000000      -0.00086914       0.00551443       0.00000000
B        5.00016788       0.00160794      20.00000000       20       0.00000000      -0.00890935       0.07528013       0.00000000
N        5.00068866       1.44591584      20.00000000       21       0.00000000       0.00612372       0.00177045       0.00000000
B        3.75007510       2.16464807      20.00000000       22       0.00000000      -0.00376826      -0.00699705       0.00000000
N        3.75219293       3.60710520      20.00000000       23       0.00000000       0.01083566      -0.00714183       0.00000000
B        2.50128670       4.32879443      20.00000000       24       0.00000000       0.04002652      -0.05122681       0.00000000
N        2.50387453       5.77126053      20.00000000       25       0.00000000       0.00582832      -0.00323179       0.00000000
B        1.25105439       6.49458590      20.00000000       26       0.00000000       0.03809129      -0.02215378       0.00000000
N        1.25179580       7.94039920      20.00000000       27       0.00000000       0.01216512       0.00283278       0.00000000
B        0.00028541       8.66159681      20.00000000       28       0.00000000      -0.00313298       0.07608277       0.00000000
N        0.00068378      10.10924021      20.00000000       29       0.00000000       0.01002732      -0.01233295       0.00000000
B        7.50081168       0.00183504      20.00000000       30       0.00000000       0.02050013       0.08630955       0.00000000
N        7.50066956       1.44599081      20.00000000       31       0.00000000       0.00841093       0.00233938       0.00000000
B        6.25069979       2.16544254      20.00000000       32       0.00000000       0.01221597       0.02398365       0.00000000
N        6.25074203       3.60800658      20.00000000       33       0.00000000       0.00563915      -0.00310327       0.00000000
B        5.00107522       4.32951035      20.00000000       34       0.00000000       0.03079225      -0.01791582       0.00000000
N        5.00224793       5.77226406      20.00000000       35       0.00000000       0.01173147      -0.00559165       0.00000000
B        3.75180091       6.49474860      20.00000000       36       0.00000000       0.06423246      -0.00928527       0.00000000
N        3.75262120       7.93876822      20.00000000       37       0.00000000       0.01421504       0.00137730       0.00000000
B        2.50165261       8.66149796      20.00000000       38       0.00000000       0.05264076       0.06351480       0.00000000
N        2.50082053      10.10781842      20.00000000       39       0.00000000       0.01528137       0.00575821       0.00000000
B       10.00085483       0.00072055      20.00000000       40       0.00000000       0.01398009       0.03665966       0.00000000
N        9.99984040       1.44346320      20.00000000       41       0.00000000       0.00222786      -0.00114222       0.00000000
B        8.75062670       2.16470599      20.00000000       42       0.00000000       0.00577654      -0.00346513       0.00000000
N        8.74806646       3.60654531      20.00000000       43       0.00000000       0.00231167      -0.00822893       0.00000000
B        7.50002533       4.32933769      20.00000000       44       0.00000000      -0.01477078      -0.02277197       0.00000000
N        7.49814095       5.77162984      20.00000000       45       0.00000000       0.00165973      -0.00596805       0.00000000
B        6.25040107       6.49533944      20.00000000       46       0.00000000       0.00406358       0.00656945       0.00000000
N        6.24955890       7.93926301      20.00000000       47       0.00000000       0.00448551      -0.01087889       0.00000000
B        5.00084930       8.66104235      20.00000000       48       0.00000000       0.01740753       0.03137357       0.00000000
N        4.99983303      10.10496143      20.00000000       49       0.00000000       0.00724747      -0.00424526       0.00000000
