
  ___ ___ ___ _ _ _  
 |   |   |_  | | | | 
 | | | | | . | | | | 
 |__ |  _|___|_____|  25.1.0
 |___|_|             

User:   denniswayo@Delas-MacBook-Pro.local
Date:   Mon Dec 15 16:02:33 2025
Arch:   x86_64
Pid:    37091
CWD:    /Users/denniswayo/gpaw-DFT/emitter2chip
Python: 3.9.22
gpaw:   /Users/denniswayo/miniforge-x86_64/envs/gpaw-tddft-legacy/lib/python3.9/site-packages/gpaw
_gpaw:  /Users/denniswayo/miniforge-x86_64/envs/gpaw-tddft-legacy/lib/python3.9/site-packages/
        _gpaw.cpython-39-darwin.so
ase:    /Users/denniswayo/miniforge-x86_64/envs/gpaw-tddft-legacy/lib/python3.9/site-packages/ase (version 3.25.0)
numpy:  /Users/denniswayo/miniforge-x86_64/envs/gpaw-tddft-legacy/lib/python3.9/site-packages/numpy (version 1.26.4)
scipy:  /Users/denniswayo/miniforge-x86_64/envs/gpaw-tddft-legacy/lib/python3.9/site-packages/scipy (version 1.13.1)
libxc:  5.1.7
units:  Angstrom and eV
cores: 1
OpenMP: False
OMP_NUM_THREADS: 1

Input parameters:
  basis: dzp
  kpts: [1 1 1]
  mode: lcao
  occupations: {fixmagmom: False,
                name: fermi-dirac,
                width: 0.05}
  spinpol: False
  symmetry: off
  xc: PBE

System changes: positions, numbers, cell, pbc, initial_charges, initial_magmoms 

Initialize ...

species:
  B:
    name: Boron
    id: 6e91439235a05fd7549e31636e8f777c
    Z: 5.0
    valence: 3
    core: 2
    charge: 0.0
    file: /Users/denniswayo/miniforge-x86_64/envs/gpaw-tddft-legacy/lib/python3.9/site-packages/gpaw_data/setups/gpaw-setups-0.9.20000/B.PBE.gz
    compensation charges: {type: gauss,
                           rc: 0.20,
                           lmax: 2}
    cutoffs: {filter: 1.14,
              core: 1.38}
    projectors:
      #              energy  rcut
      - 2s(2.00)    -9.443   0.635
      - 2p(1.00)    -3.606   0.635
      -  s          17.768   0.635
      -  p          23.605   0.635
      -  d           0.000   0.635
  
    # LCAO basis set for B:
    #   Name: dzp
    #   File: /Users/denniswayo/miniforge-x86_64/envs/gpaw-tddft-legacy/lib/python3.9/site-packages/gpaw_data/setups/gpaw-setups-0.9.20000/B.dzp.basis.gz
    #   Number of radial functions: 5
    #   Number of spherical harmonics: 13
    #     l=0, rc=6.6719 Bohr: 2s-sz confined orbital
    #     l=1, rc=8.2188 Bohr: 2p-sz confined orbital
    #     l=0, rc=3.7500 Bohr: 2s-dz split-valence wave
    #     l=1, rc=4.6094 Bohr: 2p-dz split-valence wave
    #     l=2, rc=8.2188 Bohr: d-type Gaussian polarization
    #   Number of RI-basis functions 0

  N:
    name: Nitrogen
    id: f7500608b86eaa90eef8b1d9a670dc53
    Z: 7.0
    valence: 5
    core: 2
    charge: 0.0
    file: /Users/denniswayo/miniforge-x86_64/envs/gpaw-tddft-legacy/lib/python3.9/site-packages/gpaw_data/setups/gpaw-setups-0.9.20000/N.PBE.gz
    compensation charges: {type: gauss,
                           rc: 0.18,
                           lmax: 2}
    cutoffs: {filter: 1.11,
              core: 0.96}
    projectors:
      #              energy  rcut
      - 2s(2.00)   -18.583   0.603
      - 2p(3.00)    -7.089   0.529
      -  s           8.629   0.603
      -  p          20.123   0.529
      -  d           0.000   0.577
  
    # LCAO basis set for N:
    #   Name: dzp
    #   File: /Users/denniswayo/miniforge-x86_64/envs/gpaw-tddft-legacy/lib/python3.9/site-packages/gpaw_data/setups/gpaw-setups-0.9.20000/N.dzp.basis.gz
    #   Number of radial functions: 5
    #   Number of spherical harmonics: 13
    #     l=0, rc=4.8594 Bohr: 2s-sz confined orbital
    #     l=1, rc=6.0625 Bohr: 2p-sz confined orbital
    #     l=0, rc=2.6094 Bohr: 2s-dz split-valence wave
    #     l=1, rc=3.2656 Bohr: 2p-dz split-valence wave
    #     l=2, rc=6.0625 Bohr: d-type Gaussian polarization
    #   Number of RI-basis functions 0

Reference energy: -53780.276787  # eV

Spin-paired calculation

Convergence criteria:
 Maximum [total energy] change in last 3 cyles: 0.0005 eV / valence electron
 Maximum integral of absolute [dens]ity change: 0.0001 electrons / valence electron
 Maximum integral of absolute [eigenst]ate change: 4e-08 eV^2 / valence electron
 Maximum number of scf [iter]ations: 333
 (Square brackets indicate name in SCF output, whereas a 'c' in
 the SCF output indicates the quantity has converged.)

Symmetries present (total): 1

  ( 1  0  0)
  ( 0  1  0)
  ( 0  0  1)

1 k-point (Gamma)
1 k-point in the irreducible part of the Brillouin zone
       k-points in crystal coordinates                weights
   0:     0.00000000    0.00000000    0.00000000          1/1

Wave functions: LCAO
  Diagonalizer: Serial LAPACK
  Atomic Correction: dense with blas
  Data-type: float
 

Occupation numbers: Fermi-Dirac:
  width: 0.0500  # eV
 

Eigensolver
   LCAO using direct dense diagonalizer 

Densities:
  Coarse grid: 56*56*200 grid
  Fine grid: 112*112*400 grid
  Total Charge: 0.000000 

Density mixing:
  Method: separate
  Backend: pulay
  Linear mixing parameter: 0.05
  old densities: 5
  Damping of long wavelength oscillations: 50 

Hamiltonian:
  XC and Coulomb potentials evaluated on a 112*112*400 grid
  Using the PBE Exchange-Correlation functional
  Interpolation: tri-quintic (5. degree polynomial)
  Poisson solver: FastPoissonSolver using
    Stencil: 8*3+1=25 point O(h^6) finite-difference Laplacian
    FFT axes: [0, 1, 2]
    FST axes: []
 

XC parameters: PBE with 2 nearest neighbor stencil

Memory estimate:
  Process memory now: 1932.24 MiB
  Calculator: 386.34 MiB
    Density: 197.95 MiB
      Arrays: 124.41 MiB
      Localized functions: 25.69 MiB
      Mixer: 47.85 MiB
    Hamiltonian: 83.46 MiB
      Arrays: 81.35 MiB
      XC: 0.00 MiB
      Poisson: 0.00 MiB
      vbar: 2.11 MiB
    Wavefunctions: 104.93 MiB
      C [qnM]: 0.61 MiB
      S, T [2 x qmm]: 6.45 MiB
      P [aqMi]: 0.40 MiB
      BasisFunctions: 97.46 MiB
      Eigensolver: 0.00 MiB

Total number of cores used: 1

Number of atoms: 50
Number of atomic orbitals: 650
Number of bands in calculation: 124
Number of valence electrons: 200
Bands to converge: occupied

... initialized

Initializing position-dependent things.

Density initialized from atomic densities
                                                            
                                                            
                                                            
                                                            
              N     N     N     N     N                     
             B N   B  N  B  N  B  N  B  N                   
              B      B     B     B     B                    
                BN    BN     B     BN    BN                 
                   N     N     N     N      N               
                  B  N  B  N  B  N  B  N   B N              
                    B     B     B     B     B               
                                                            
                                                            
                                                            
                                                            

Positions:
   0 B      0.000000    0.000000   20.000000    ( 0.0000,  0.0000,  0.0000)
   1 N     -0.000000    1.443376   20.000000    ( 0.0000,  0.0000,  0.0000)
   2 B     -1.250000    2.165064   20.000000    ( 0.0000,  0.0000,  0.0000)
   3 N     -1.250000    3.608439   20.000000    ( 0.0000,  0.0000,  0.0000)
   4 B     -2.500000    4.330127   20.000000    ( 0.0000,  0.0000,  0.0000)
   5 N     -2.500000    5.773503   20.000000    ( 0.0000,  0.0000,  0.0000)
   6 B     -3.750000    6.495191   20.000000    ( 0.0000,  0.0000,  0.0000)
   7 N     -3.750000    7.938566   20.000000    ( 0.0000,  0.0000,  0.0000)
   8 B     -5.000000    8.660254   20.000000    ( 0.0000,  0.0000,  0.0000)
   9 N     -5.000000   10.103630   20.000000    ( 0.0000,  0.0000,  0.0000)
  10 B      2.500000    0.000000   20.000000    ( 0.0000,  0.0000,  0.0000)
  11 N      2.500000    1.443376   20.000000    ( 0.0000,  0.0000,  0.0000)
  12 B      1.250000    2.165064   20.000000    ( 0.0000,  0.0000,  0.0000)
  13 N      1.250000    3.608439   20.000000    ( 0.0000,  0.0000,  0.0000)
  14 B     -0.000000    4.330127   20.000000    ( 0.0000,  0.0000,  0.0000)
  15 N     -0.000000    5.773503   20.000000    ( 0.0000,  0.0000,  0.0000)
  16 B     -1.250000    6.495191   20.000000    ( 0.0000,  0.0000,  0.0000)
  17 N     -1.250000    7.938566   20.000000    ( 0.0000,  0.0000,  0.0000)
  18 B     -2.500000    8.660254   20.000000    ( 0.0000,  0.0000,  0.0000)
  19 N     -2.500000   10.103630   20.000000    ( 0.0000,  0.0000,  0.0000)
  20 B      5.000000    0.000000   20.000000    ( 0.0000,  0.0000,  0.0000)
  21 N      5.000000    1.443376   20.000000    ( 0.0000,  0.0000,  0.0000)
  22 B      3.750000    2.165064   20.000000    ( 0.0000,  0.0000,  0.0000)
  23 N      3.750000    3.608439   20.000000    ( 0.0000,  0.0000,  0.0000)
  24 B      2.500000    4.330127   20.000000    ( 0.0000,  0.0000,  0.0000)
  25 N      2.500000    5.773503   20.000000    ( 0.0000,  0.0000,  0.0000)
  26 B      1.250000    6.495191   20.000000    ( 0.0000,  0.0000,  0.0000)
  27 N      1.250000    7.938566   20.000000    ( 0.0000,  0.0000,  0.0000)
  28 B     -0.000000    8.660254   20.000000    ( 0.0000,  0.0000,  0.0000)
  29 N     -0.000000   10.103630   20.000000    ( 0.0000,  0.0000,  0.0000)
  30 B      7.500000    0.000000   20.000000    ( 0.0000,  0.0000,  0.0000)
  31 N      7.500000    1.443376   20.000000    ( 0.0000,  0.0000,  0.0000)
  32 B      6.250000    2.165064   20.000000    ( 0.0000,  0.0000,  0.0000)
  33 N      6.250000    3.608439   20.000000    ( 0.0000,  0.0000,  0.0000)
  34 B      5.000000    4.330127   20.000000    ( 0.0000,  0.0000,  0.0000)
  35 N      5.000000    5.773503   20.000000    ( 0.0000,  0.0000,  0.0000)
  36 B      3.750000    6.495191   20.000000    ( 0.0000,  0.0000,  0.0000)
  37 N      3.750000    7.938566   20.000000    ( 0.0000,  0.0000,  0.0000)
  38 B      2.500000    8.660254   20.000000    ( 0.0000,  0.0000,  0.0000)
  39 N      2.500000   10.103630   20.000000    ( 0.0000,  0.0000,  0.0000)
  40 B     10.000000    0.000000   20.000000    ( 0.0000,  0.0000,  0.0000)
  41 N     10.000000    1.443376   20.000000    ( 0.0000,  0.0000,  0.0000)
  42 B      8.750000    2.165064   20.000000    ( 0.0000,  0.0000,  0.0000)
  43 N      8.750000    3.608439   20.000000    ( 0.0000,  0.0000,  0.0000)
  44 B      7.500000    4.330127   20.000000    ( 0.0000,  0.0000,  0.0000)
  45 N      7.500000    5.773503   20.000000    ( 0.0000,  0.0000,  0.0000)
  46 B      6.250000    6.495191   20.000000    ( 0.0000,  0.0000,  0.0000)
  47 N      6.250000    7.938566   20.000000    ( 0.0000,  0.0000,  0.0000)
  48 B      5.000000    8.660254   20.000000    ( 0.0000,  0.0000,  0.0000)
  49 N      5.000000   10.103630   20.000000    ( 0.0000,  0.0000,  0.0000)

Unit cell:
           periodic     x           y           z      points  spacing
  1. axis:    yes   12.500000    0.000000    0.000000    56     0.1933
  2. axis:    yes   -6.250000   10.825318    0.000000    56     0.1933
  3. axis:    yes    0.000000    0.000000   40.000000   200     0.2000

  Lengths:  12.500000  12.500000  40.000000
  Angles:   90.000000  90.000000 120.000000

Effective grid spacing dv^(1/3) = 0.2051

     iter     time        total  log10-change:
                         energy   eigst   dens
iter:   1 16:02:40  -442.043579        c
iter:   2 16:02:45  -437.270616        c -0.76
iter:   3 16:02:49  -421.079176        c -0.80
iter:   4 16:02:54  -420.414377        c -1.19
iter:   5 16:02:58  -420.193145        c -1.55
iter:   6 16:03:03  -420.198414        c -2.01
iter:   7 16:03:07  -420.144602c       c -2.13
iter:   8 16:03:12  -420.144615c       c -3.65
iter:   9 16:03:16  -420.144592c       c -3.70
iter:  10 16:03:21  -420.144592c       c -4.51c

Converged after 10 iterations.

Dipole moment: (-24.439403, -5.772998, -0.000000) |e|*Ang

Energy contributions relative to reference atoms: (reference = -53780.276787)

Kinetic:       +397.439095
Potential:     -402.813116
External:        +0.000000
XC:            -431.019537
Entropy (-ST):   -0.000000
Local:          +16.248967
SIC:             +0.000000
--------------------------
Free energy:   -420.144592
Extrapolated:  -420.144592

 Band  Eigenvalues  Occupancy
    0    -22.71438    2.00000
    1    -21.97060    2.00000
    2    -21.97038    2.00000
    3    -21.97003    2.00000
    4    -21.96965    2.00000
    5    -21.96925    2.00000
    6    -21.96914    2.00000
    7    -20.63599    2.00000
    8    -20.63587    2.00000
    9    -20.63581    2.00000
   10    -20.63580    2.00000
   11    -20.63575    2.00000
   12    -20.63572    2.00000
   13    -20.15404    2.00000
   14    -20.15403    2.00000
   15    -20.15357    2.00000
   16    -20.15280    2.00000
   17    -20.15269    2.00000
   18    -20.15263    2.00000
   19    -19.31415    2.00000
   20    -19.31415    2.00000
   21    -19.31372    2.00000
   22    -19.31369    2.00000
   23    -19.31238    2.00000
   24    -19.31236    2.00000
   25    -13.48780    2.00000
   26    -13.48770    2.00000
   27    -13.48758    2.00000
   28    -13.48748    2.00000
   29    -13.48661    2.00000
   30    -13.48642    2.00000
   31    -13.10945    2.00000
   32    -13.10940    2.00000
   33    -13.10876    2.00000
   34    -13.10869    2.00000
   35    -13.10823    2.00000
   36    -13.10793    2.00000
   37    -11.53255    2.00000
   38    -11.53253    2.00000
   39    -11.53094    2.00000
   40    -11.53080    2.00000
   41    -11.53063    2.00000
   42    -11.53052    2.00000
   43    -10.96836    2.00000
   44    -10.96836    2.00000
   45    -10.96773    2.00000
   46    -10.96771    2.00000
   47    -10.96733    2.00000
   48    -10.96727    2.00000
   49    -10.21963    2.00000
   50     -9.76458    2.00000
   51     -9.76457    2.00000
   52     -9.76455    2.00000
   53     -9.76448    2.00000
   54     -9.76315    2.00000
   55     -9.76311    2.00000
   56     -9.20360    2.00000
   57     -9.20339    2.00000
   58     -9.20331    2.00000
   59     -9.20295    2.00000
   60     -9.20285    2.00000
   61     -9.20276    2.00000
   62     -9.00946    2.00000
   63     -9.00926    2.00000
   64     -9.00908    2.00000
   65     -9.00888    2.00000
   66     -9.00782    2.00000
   67     -9.00771    2.00000
   68     -8.97068    2.00000
   69     -8.97060    2.00000
   70     -8.97043    2.00000
   71     -8.97029    2.00000
   72     -8.97024    2.00000
   73     -8.97019    2.00000
   74     -7.54218    2.00000
   75     -7.54192    2.00000
   76     -7.54135    2.00000
   77     -7.53963    2.00000
   78     -7.53946    2.00000
   79     -7.53803    2.00000
   80     -7.34304    2.00000
   81     -7.34303    2.00000
   82     -7.34301    2.00000
   83     -7.34299    2.00000
   84     -7.34298    2.00000
   85     -7.34296    2.00000
   86     -6.62393    2.00000
   87     -6.62389    2.00000
   88     -6.62384    2.00000
   89     -6.62361    2.00000
   90     -6.62358    2.00000
   91     -6.62353    2.00000
   92     -6.34175    2.00000
   93     -6.33959    2.00000
   94     -5.32208    2.00000
   95     -5.32207    2.00000
   96     -5.32182    2.00000
   97     -5.32180    2.00000
   98     -5.32161    2.00000
   99     -5.32161    2.00000
  100     -0.10107    0.00000
  101     -0.10100    0.00000
  102     -0.10065    0.00000
  103     -0.10064    0.00000
  104     -0.10007    0.00000
  105     -0.10006    0.00000
  106      1.00148    0.00000
  107      1.00151    0.00000
  108      1.00164    0.00000
  109      1.00201    0.00000
  110      1.00214    0.00000
  111      1.00217    0.00000
  112      2.31921    0.00000
  113      2.31922    0.00000
  114      2.31926    0.00000
  115      2.31927    0.00000
  116      2.31931    0.00000
  117      2.31931    0.00000
  118      3.30631    0.00000
  119      3.62603    0.00000
  120      3.62627    0.00000
  121      3.62806    0.00000
  122      3.62837    0.00000
  123      3.62860    0.00000

Fermi level: -3.94539

Gap: 5.221 eV
Transition (v -> c):
  (s=0, k=0, n=99, [0.00, 0.00, 0.00]) -> (s=0, k=0, n=100, [0.00, 0.00, 0.00])
No difference between direct/indirect transitions

Forces in eV/Ang:
  0 B     0.01033   -0.00571    0.00000
  1 N    -0.06004   -0.02399    0.00000
  2 B     0.01636   -0.01202    0.00000
  3 N    -0.13336   -0.11842    0.00000
  4 B     0.01157   -0.00499    0.00000
  5 N    -0.19229   -0.13973    0.00000
  6 B     0.01218   -0.00695    0.00000
  7 N    -0.13697   -0.03869    0.00000
  8 B     0.00771    0.00163    0.00000
  9 N    -0.07192    0.04127    0.00000
 10 B     0.00265   -0.00712    0.00000
 11 N    -0.03095    0.00650    0.00000
 12 B     0.00541   -0.01148    0.00000
 13 N     0.04191   -0.10178    0.00000
 14 B     0.01117   -0.01077    0.00000
 15 N    -0.03113   -0.10226    0.00000
 16 B     0.01394   -0.00485    0.00000
 17 N    -0.07928    0.04552    0.00000
 18 B     0.00688   -0.00372    0.00000
 19 N    -0.03520    0.13758    0.00000
 20 B     0.01232   -0.00671    0.00000
 21 N     0.03580    0.12360    0.00000
 22 B    -0.00218   -0.01297    0.00000
 23 N     0.10420   -0.05637    0.00000
 24 B     0.01076   -0.00419    0.00000
 25 N     0.15733   -0.09109    0.00000
 26 B     0.00864   -0.00474    0.00000
 27 N     0.07278    0.07770    0.00000
 28 B     0.01138   -0.00927    0.00000
 29 N     0.02464    0.23601    0.00000
 30 B     0.01031   -0.00715    0.00000
 31 N     0.02182    0.12768    0.00000
 32 B     0.01117   -0.01189    0.00000
 33 N     0.03294   -0.01927    0.00000
 34 B     0.00542   -0.00288    0.00000
 35 N     0.10069   -0.06244    0.00000
 36 B     0.00922   -0.00685    0.00000
 37 N     0.10888    0.01421    0.00000
 38 B     0.01512   -0.00392    0.00000
 39 N     0.03565    0.17432    0.00000
 40 B     0.01881   -0.00779    0.00000
 41 N    -0.02164    0.01224    0.00000
 42 B     0.02443   -0.01386    0.00000
 43 N    -0.09988   -0.08312    0.00000
 44 B     0.01610   -0.00335    0.00000
 45 N    -0.08937   -0.09318    0.00000
 46 B     0.01036    0.00875    0.00000
 47 N    -0.02133    0.02317    0.00000
 48 B     0.01286    0.00142    0.00000
 49 N    -0.00947    0.06361    0.00000

System changes: positions 

Initializing position-dependent things.

Density initialized from wave functions
                                                            
                                                            
                                                            
                                                            
              N     N     N     N     N                     
             B N   B  N  B  N  B  N  B  N                   
              B      B     B     B     B                    
                BN    BN     B     BN    BN                 
                   N     N     N     N      N               
                  B  N  B  N  B  N  B  N   B N              
                    B     B     B     B     B               
                                                            
                                                            
                                                            
                                                            

Positions:
   0 B      0.000148   -0.000082   20.000000    ( 0.0000,  0.0000,  0.0000)
   1 N     -0.000858    1.443033   20.000000    ( 0.0000,  0.0000,  0.0000)
   2 B     -1.249766    2.164892   20.000000    ( 0.0000,  0.0000,  0.0000)
   3 N     -1.251905    3.606748   20.000000    ( 0.0000,  0.0000,  0.0000)
   4 B     -2.499835    4.330056   20.000000    ( 0.0000,  0.0000,  0.0000)
   5 N     -2.502747    5.771507   20.000000    ( 0.0000,  0.0000,  0.0000)
   6 B     -3.749826    6.495091   20.000000    ( 0.0000,  0.0000,  0.0000)
   7 N     -3.751957    7.938013   20.000000    ( 0.0000,  0.0000,  0.0000)
   8 B     -4.999890    8.660277   20.000000    ( 0.0000,  0.0000,  0.0000)
   9 N     -5.001027   10.104219   20.000000    ( 0.0000,  0.0000,  0.0000)
  10 B      2.500038   -0.000102   20.000000    ( 0.0000,  0.0000,  0.0000)
  11 N      2.499558    1.443469   20.000000    ( 0.0000,  0.0000,  0.0000)
  12 B      1.250077    2.164899   20.000000    ( 0.0000,  0.0000,  0.0000)
  13 N      1.250599    3.606985   20.000000    ( 0.0000,  0.0000,  0.0000)
  14 B      0.000160    4.329973   20.000000    ( 0.0000,  0.0000,  0.0000)
  15 N     -0.000445    5.772042   20.000000    ( 0.0000,  0.0000,  0.0000)
  16 B     -1.249801    6.495121   20.000000    ( 0.0000,  0.0000,  0.0000)
  17 N     -1.251133    7.939216   20.000000    ( 0.0000,  0.0000,  0.0000)
  18 B     -2.499902    8.660201   20.000000    ( 0.0000,  0.0000,  0.0000)
  19 N     -2.500503   10.105595   20.000000    ( 0.0000,  0.0000,  0.0000)
  20 B      5.000176   -0.000096   20.000000    ( 0.0000,  0.0000,  0.0000)
  21 N      5.000511    1.445141   20.000000    ( 0.0000,  0.0000,  0.0000)
  22 B      3.749969    2.164878   20.000000    ( 0.0000,  0.0000,  0.0000)
  23 N      3.751489    3.607634   20.000000    ( 0.0000,  0.0000,  0.0000)
  24 B      2.500154    4.330067   20.000000    ( 0.0000,  0.0000,  0.0000)
  25 N      2.502248    5.772201   20.000000    ( 0.0000,  0.0000,  0.0000)
  26 B      1.250123    6.495123   20.000000    ( 0.0000,  0.0000,  0.0000)
  27 N      1.251040    7.939676   20.000000    ( 0.0000,  0.0000,  0.0000)
  28 B      0.000163    8.660122   20.000000    ( 0.0000,  0.0000,  0.0000)
  29 N      0.000352   10.107001   20.000000    ( 0.0000,  0.0000,  0.0000)
  30 B      7.500147   -0.000102   20.000000    ( 0.0000,  0.0000,  0.0000)
  31 N      7.500312    1.445200   20.000000    ( 0.0000,  0.0000,  0.0000)
  32 B      6.250160    2.164894   20.000000    ( 0.0000,  0.0000,  0.0000)
  33 N      6.250471    3.608164   20.000000    ( 0.0000,  0.0000,  0.0000)
  34 B      5.000077    4.330086   20.000000    ( 0.0000,  0.0000,  0.0000)
  35 N      5.001438    5.772611   20.000000    ( 0.0000,  0.0000,  0.0000)
  36 B      3.750132    6.495093   20.000000    ( 0.0000,  0.0000,  0.0000)
  37 N      3.751555    7.938769   20.000000    ( 0.0000,  0.0000,  0.0000)
  38 B      2.500216    8.660198   20.000000    ( 0.0000,  0.0000,  0.0000)
  39 N      2.500509   10.106120   20.000000    ( 0.0000,  0.0000,  0.0000)
  40 B     10.000269   -0.000111   20.000000    ( 0.0000,  0.0000,  0.0000)
  41 N      9.999691    1.443551   20.000000    ( 0.0000,  0.0000,  0.0000)
  42 B      8.750349    2.164866   20.000000    ( 0.0000,  0.0000,  0.0000)
  43 N      8.748573    3.607252   20.000000    ( 0.0000,  0.0000,  0.0000)
  44 B      7.500230    4.330079   20.000000    ( 0.0000,  0.0000,  0.0000)
  45 N      7.498723    5.772171   20.000000    ( 0.0000,  0.0000,  0.0000)
  46 B      6.250148    6.495316   20.000000    ( 0.0000,  0.0000,  0.0000)
  47 N      6.249695    7.938897   20.000000    ( 0.0000,  0.0000,  0.0000)
  48 B      5.000184    8.660274   20.000000    ( 0.0000,  0.0000,  0.0000)
  49 N      4.999865   10.104538   20.000000    ( 0.0000,  0.0000,  0.0000)

Unit cell:
           periodic     x           y           z      points  spacing
  1. axis:    yes   12.500000    0.000000    0.000000    56     0.1933
  2. axis:    yes   -6.250000   10.825318    0.000000    56     0.1933
  3. axis:    yes    0.000000    0.000000   40.000000   200     0.2000

  Lengths:  12.500000  12.500000  40.000000
  Angles:   90.000000  90.000000 120.000000

Effective grid spacing dv^(1/3) = 0.2051

     iter     time        total  log10-change:
                         energy   eigst   dens
iter:   1 16:03:37  -420.148039        c
iter:   2 16:03:41  -420.148028        c -3.72
iter:   3 16:03:45  -420.147988c       c -3.76
iter:   4 16:03:50  -420.147983c       c -4.10c

Converged after 4 iterations.

Dipole moment: (-24.713476, -5.586332, -0.000000) |e|*Ang

Energy contributions relative to reference atoms: (reference = -53780.276787)

Kinetic:       +397.460373
Potential:     -402.848606
External:        +0.000000
XC:            -431.024607
Entropy (-ST):   -0.000000
Local:          +16.264856
SIC:             +0.000000
--------------------------
Free energy:   -420.147983
Extrapolated:  -420.147983

 Band  Eigenvalues  Occupancy
    0    -22.71434    2.00000
    1    -21.97722    2.00000
    2    -21.97432    2.00000
    3    -21.97190    2.00000
    4    -21.96735    2.00000
    5    -21.96503    2.00000
    6    -21.96243    2.00000
    7    -20.63629    2.00000
    8    -20.63628    2.00000
    9    -20.63607    2.00000
   10    -20.63603    2.00000
   11    -20.63505    2.00000
   12    -20.63495    2.00000
   13    -20.16148    2.00000
   14    -20.16146    2.00000
   15    -20.15806    2.00000
   16    -20.14876    2.00000
   17    -20.14477    2.00000
   18    -20.14412    2.00000
   19    -19.32410    2.00000
   20    -19.32406    2.00000
   21    -19.31214    2.00000
   22    -19.31212    2.00000
   23    -19.30318    2.00000
   24    -19.30312    2.00000
   25    -13.49515    2.00000
   26    -13.49513    2.00000
   27    -13.48496    2.00000
   28    -13.48465    2.00000
   29    -13.48198    2.00000
   30    -13.48160    2.00000
   31    -13.11452    2.00000
   32    -13.11391    2.00000
   33    -13.11209    2.00000
   34    -13.10553    2.00000
   35    -13.10259    2.00000
   36    -13.10239    2.00000
   37    -11.53161    2.00000
   38    -11.53156    2.00000
   39    -11.53147    2.00000
   40    -11.53083    2.00000
   41    -11.53059    2.00000
   42    -11.53055    2.00000
   43    -10.97631    2.00000
   44    -10.97625    2.00000
   45    -10.96843    2.00000
   46    -10.96594    2.00000
   47    -10.95979    2.00000
   48    -10.95953    2.00000
   49    -10.21956    2.00000
   50     -9.76577    2.00000
   51     -9.76533    2.00000
   52     -9.76507    2.00000
   53     -9.76320    2.00000
   54     -9.76263    2.00000
   55     -9.76243    2.00000
   56     -9.21021    2.00000
   57     -9.20768    2.00000
   58     -9.20523    2.00000
   59     -9.20087    2.00000
   60     -9.19818    2.00000
   61     -9.19583    2.00000
   62     -9.02347    2.00000
   63     -9.02091    2.00000
   64     -9.01365    2.00000
   65     -9.00323    2.00000
   66     -8.99860    2.00000
   67     -8.99132    2.00000
   68     -8.97814    2.00000
   69     -8.97783    2.00000
   70     -8.97150    2.00000
   71     -8.96496    2.00000
   72     -8.96437    2.00000
   73     -8.96366    2.00000
   74     -7.55849    2.00000
   75     -7.55030    2.00000
   76     -7.54650    2.00000
   77     -7.53552    2.00000
   78     -7.52678    2.00000
   79     -7.52381    2.00000
   80     -7.34358    2.00000
   81     -7.34347    2.00000
   82     -7.34310    2.00000
   83     -7.34299    2.00000
   84     -7.34225    2.00000
   85     -7.34205    2.00000
   86     -6.63299    2.00000
   87     -6.63295    2.00000
   88     -6.62756    2.00000
   89     -6.61778    2.00000
   90     -6.61528    2.00000
   91     -6.61463    2.00000
   92     -6.34324    2.00000
   93     -6.33705    2.00000
   94     -5.33364    2.00000
   95     -5.33362    2.00000
   96     -5.31919    2.00000
   97     -5.31906    2.00000
   98     -5.31209    2.00000
   99     -5.31160    2.00000
  100     -0.11200    0.00000
  101     -0.11185    0.00000
  102     -0.09930    0.00000
  103     -0.09832    0.00000
  104     -0.09104    0.00000
  105     -0.09084    0.00000
  106      0.99048    0.00000
  107      0.99212    0.00000
  108      0.99343    0.00000
  109      1.00605    0.00000
  110      1.01482    0.00000
  111      1.01496    0.00000
  112      2.31772    0.00000
  113      2.31834    0.00000
  114      2.31909    0.00000
  115      2.31947    0.00000
  116      2.32096    0.00000
  117      2.32167    0.00000
  118      3.30604    0.00000
  119      3.61620    0.00000
  120      3.61994    0.00000
  121      3.62510    0.00000
  122      3.63261    0.00000
  123      3.63484    0.00000

Fermi level: -3.94539

Gap: 5.200 eV
Transition (v -> c):
  (s=0, k=0, n=99, [0.00, 0.00, 0.00]) -> (s=0, k=0, n=100, [0.00, 0.00, 0.00])
No difference between direct/indirect transitions

Forces in eV/Ang:
  0 B    -0.02635    0.01516    0.00000
  1 N     0.00398   -0.00044    0.00000
  2 B    -0.03491   -0.05309    0.00000
  3 N    -0.02088   -0.01543    0.00000
  4 B    -0.09114   -0.09594    0.00000
  5 N    -0.02216   -0.02373    0.00000
  6 B    -0.09997   -0.05048    0.00000
  7 N    -0.01773   -0.01271    0.00000
  8 B    -0.05278    0.02664    0.00000
  9 N     0.00466   -0.00261    0.00000
 10 B    -0.04952    0.03228    0.00000
 11 N    -0.00991   -0.00726    0.00000
 12 B    -0.02369   -0.05570    0.00000
 13 N     0.01414   -0.01077    0.00000
 14 B    -0.03119   -0.11552    0.00000
 15 N    -0.00116   -0.01654    0.00000
 16 B    -0.08402   -0.05141    0.00000
 17 N    -0.00753    0.00439    0.00000
 18 B    -0.08718    0.05026    0.00000
 19 N     0.00219    0.02175    0.00000
 20 B    -0.00634    0.11171    0.00000
 21 N    -0.00562   -0.00906    0.00000
 22 B     0.00780   -0.00853    0.00000
 23 N    -0.00435   -0.00706    0.00000
 24 B     0.06709   -0.07910    0.00000
 25 N     0.02932   -0.01691    0.00000
 26 B     0.05522   -0.03196    0.00000
 27 N     0.01379    0.00935    0.00000
 28 B     0.00244    0.09836    0.00000
 29 N     0.00949    0.03114    0.00000
 30 B     0.03745    0.12679    0.00000
 31 N     0.01249   -0.00991    0.00000
 32 B     0.02914    0.04058    0.00000
 33 N     0.00174   -0.00092    0.00000
 34 B     0.06100   -0.03530    0.00000
 35 N     0.00400    0.00741    0.00000
 36 B     0.10197   -0.01868    0.00000
 37 N     0.01646   -0.00678    0.00000
 38 B     0.08437    0.08466    0.00000
 39 N     0.00299    0.02586    0.00000
 40 B     0.02845    0.05667    0.00000
 41 N     0.01975   -0.01134    0.00000
 42 B     0.00615   -0.00362    0.00000
 43 N     0.01491   -0.00574    0.00000
 44 B    -0.02064   -0.04565    0.00000
 45 N     0.00512    0.00951    0.00000
 46 B     0.01123   -0.00261    0.00000
 47 N     0.00139    0.01236    0.00000
 48 B     0.03632    0.04825    0.00000
 49 N     0.00245   -0.00310    0.00000

System changes: positions 

Initializing position-dependent things.

Density initialized from wave functions
                                                            
                                                            
                                                            
                                                            
              N     N     N     N     N                     
             B N   B  N  B  N  B  N  B  N                   
              B      B     B     B     B                    
                BN    BN     B     BN    BN                 
                   N     N     N     N      N               
                  B  N  B  N  B  N  B  N   B N              
                    B     B     B     B     B               
                                                            
                                                            
                                                            
                                                            

Positions:
   0 B     -0.000190    0.000114   20.000000    ( 0.0000,  0.0000,  0.0000)
   1 N     -0.001241    1.442848   20.000000    ( 0.0000,  0.0000,  0.0000)
   2 B     -1.250193    2.163969   20.000000    ( 0.0000,  0.0000,  0.0000)
   3 N     -1.253222    3.605627   20.000000    ( 0.0000,  0.0000,  0.0000)
   4 B     -2.501180    4.328513   20.000000    ( 0.0000,  0.0000,  0.0000)
   5 N     -2.504521    5.770098   20.000000    ( 0.0000,  0.0000,  0.0000)
   6 B     -3.751305    6.494247   20.000000    ( 0.0000,  0.0000,  0.0000)
   7 N     -3.753251    7.937527   20.000000    ( 0.0000,  0.0000,  0.0000)
   8 B     -5.000661    8.660708   20.000000    ( 0.0000,  0.0000,  0.0000)
   9 N     -5.001488   10.104484   20.000000    ( 0.0000,  0.0000,  0.0000)
  10 B      2.499280    0.000352   20.000000    ( 0.0000,  0.0000,  0.0000)
  11 N      2.499173    1.443403   20.000000    ( 0.0000,  0.0000,  0.0000)
  12 B      1.249746    2.163940   20.000000    ( 0.0000,  0.0000,  0.0000)
  13 N      1.251132    3.606061   20.000000    ( 0.0000,  0.0000,  0.0000)
  14 B     -0.000247    4.328080   20.000000    ( 0.0000,  0.0000,  0.0000)
  15 N     -0.000694    5.771024   20.000000    ( 0.0000,  0.0000,  0.0000)
  16 B     -1.251017    6.494278   20.000000    ( 0.0000,  0.0000,  0.0000)
  17 N     -1.251839    7.939623   20.000000    ( 0.0000,  0.0000,  0.0000)
  18 B     -2.501219    8.660962   20.000000    ( 0.0000,  0.0000,  0.0000)
  19 N     -2.500729   10.106957   20.000000    ( 0.0000,  0.0000,  0.0000)
  20 B      5.000168    0.001608   20.000000    ( 0.0000,  0.0000,  0.0000)
  21 N      5.000689    1.445916   20.000000    ( 0.0000,  0.0000,  0.0000)
  22 B      3.750075    2.164648   20.000000    ( 0.0000,  0.0000,  0.0000)
  23 N      3.752193    3.607105   20.000000    ( 0.0000,  0.0000,  0.0000)
  24 B      2.501287    4.328794   20.000000    ( 0.0000,  0.0000,  0.0000)
  25 N      2.503875    5.771261   20.000000    ( 0.0000,  0.0000,  0.0000)
  26 B      1.251054    6.494586   20.000000    ( 0.0000,  0.0000,  0.0000)
  27 N      1.251796    7.940399   20.000000    ( 0.0000,  0.0000,  0.0000)
  28 B      0.000285    8.661597   20.000000    ( 0.0000,  0.0000,  0.0000)
  29 N      0.000684   10.109240   20.000000    ( 0.0000,  0.0000,  0.0000)
  30 B      7.500812    0.001835   20.000000    ( 0.0000,  0.0000,  0.0000)
  31 N      7.500670    1.445991   20.000000    ( 0.0000,  0.0000,  0.0000)
  32 B      6.250700    2.165443   20.000000    ( 0.0000,  0.0000,  0.0000)
  33 N      6.250742    3.608007   20.000000    ( 0.0000,  0.0000,  0.0000)
  34 B      5.001075    4.329510   20.000000    ( 0.0000,  0.0000,  0.0000)
  35 N      5.002248    5.772264   20.000000    ( 0.0000,  0.0000,  0.0000)
  36 B      3.751801    6.494749   20.000000    ( 0.0000,  0.0000,  0.0000)
  37 N      3.752621    7.938768   20.000000    ( 0.0000,  0.0000,  0.0000)
  38 B      2.501653    8.661498   20.000000    ( 0.0000,  0.0000,  0.0000)
  39 N      2.500821   10.107818   20.000000    ( 0.0000,  0.0000,  0.0000)
  40 B     10.000855    0.000721   20.000000    ( 0.0000,  0.0000,  0.0000)
  41 N      9.999840    1.443463   20.000000    ( 0.0000,  0.0000,  0.0000)
  42 B      8.750627    2.164706   20.000000    ( 0.0000,  0.0000,  0.0000)
  43 N      8.748066    3.606545   20.000000    ( 0.0000,  0.0000,  0.0000)
  44 B      7.500025    4.329338   20.000000    ( 0.0000,  0.0000,  0.0000)
  45 N      7.498141    5.771630   20.000000    ( 0.0000,  0.0000,  0.0000)
  46 B      6.250401    6.495339   20.000000    ( 0.0000,  0.0000,  0.0000)
  47 N      6.249559    7.939263   20.000000    ( 0.0000,  0.0000,  0.0000)
  48 B      5.000849    8.661042   20.000000    ( 0.0000,  0.0000,  0.0000)
  49 N      4.999833   10.104961   20.000000    ( 0.0000,  0.0000,  0.0000)

Unit cell:
           periodic     x           y           z      points  spacing
  1. axis:    yes   12.500000    0.000000    0.000000    56     0.1933
  2. axis:    yes   -6.250000   10.825318    0.000000    56     0.1933
  3. axis:    yes    0.000000    0.000000   40.000000   200     0.2000

  Lengths:  12.500000  12.500000  40.000000
  Angles:   90.000000  90.000000 120.000000

Effective grid spacing dv^(1/3) = 0.2051

     iter     time        total  log10-change:
                         energy   eigst   dens
iter:   1 16:04:05  -420.151342        c
iter:   2 16:04:09  -420.151147        c -3.43
iter:   3 16:04:14  -420.150670c       c -3.50
iter:   4 16:04:18  -420.150646c       c -3.90
iter:   5 16:04:23  -420.150646c       c -4.38c

Converged after 5 iterations.

Dipole moment: (-24.197636, -5.862193, 0.000000) |e|*Ang

Energy contributions relative to reference atoms: (reference = -53780.276787)

Kinetic:       +397.480145
Potential:     -402.872038
External:        +0.000000
XC:            -431.025856
Entropy (-ST):   -0.000000
Local:          +16.267104
SIC:             +0.000000
--------------------------
Free energy:   -420.150646
Extrapolated:  -420.150646

 Band  Eigenvalues  Occupancy
    0    -22.71422    2.00000
    1    -21.97156    2.00000
    2    -21.97073    2.00000
    3    -21.97012    2.00000
    4    -21.96934    2.00000
    5    -21.96890    2.00000
    6    -21.96743    2.00000
    7    -20.63685    2.00000
    8    -20.63625    2.00000
    9    -20.63614    2.00000
   10    -20.63590    2.00000
   11    -20.63453    2.00000
   12    -20.63445    2.00000
   13    -20.15977    2.00000
   14    -20.15933    2.00000
   15    -20.15712    2.00000
   16    -20.15002    2.00000
   17    -20.14697    2.00000
   18    -20.14554    2.00000
   19    -19.31844    2.00000
   20    -19.31836    2.00000
   21    -19.31341    2.00000
   22    -19.31330    2.00000
   23    -19.30808    2.00000
   24    -19.30760    2.00000
   25    -13.49108    2.00000
   26    -13.49022    2.00000
   27    -13.48746    2.00000
   28    -13.48743    2.00000
   29    -13.48317    2.00000
   30    -13.48316    2.00000
   31    -13.11263    2.00000
   32    -13.11240    2.00000
   33    -13.11142    2.00000
   34    -13.10674    2.00000
   35    -13.10424    2.00000
   36    -13.10387    2.00000
   37    -11.53220    2.00000
   38    -11.53216    2.00000
   39    -11.53166    2.00000
   40    -11.53062    2.00000
   41    -11.53016    2.00000
   42    -11.53012    2.00000
   43    -10.97664    2.00000
   44    -10.97633    2.00000
   45    -10.96714    2.00000
   46    -10.96447    2.00000
   47    -10.96198    2.00000
   48    -10.95913    2.00000
   49    -10.21945    2.00000
   50     -9.76737    2.00000
   51     -9.76635    2.00000
   52     -9.76622    2.00000
   53     -9.76245    2.00000
   54     -9.76111    2.00000
   55     -9.76072    2.00000
   56     -9.20415    2.00000
   57     -9.20321    2.00000
   58     -9.20321    2.00000
   59     -9.20318    2.00000
   60     -9.20280    2.00000
   61     -9.20122    2.00000
   62     -9.02015    2.00000
   63     -9.01925    2.00000
   64     -9.01288    2.00000
   65     -9.00419    2.00000
   66     -9.00124    2.00000
   67     -8.99356    2.00000
   68     -8.97845    2.00000
   69     -8.97773    2.00000
   70     -8.97099    2.00000
   71     -8.96625    2.00000
   72     -8.96431    2.00000
   73     -8.96274    2.00000
   74     -7.55869    2.00000
   75     -7.54878    2.00000
   76     -7.54585    2.00000
   77     -7.53600    2.00000
   78     -7.52716    2.00000
   79     -7.52481    2.00000
   80     -7.34408    2.00000
   81     -7.34354    2.00000
   82     -7.34314    2.00000
   83     -7.34294    2.00000
   84     -7.34173    2.00000
   85     -7.34152    2.00000
   86     -6.63181    2.00000
   87     -6.63163    2.00000
   88     -6.62671    2.00000
   89     -6.61848    2.00000
   90     -6.61698    2.00000
   91     -6.61545    2.00000
   92     -6.34428    2.00000
   93     -6.33615    2.00000
   94     -5.32991    2.00000
   95     -5.32989    2.00000
   96     -5.31987    2.00000
   97     -5.31941    2.00000
   98     -5.31533    2.00000
   99     -5.31476    2.00000
  100     -0.11198    0.00000
  101     -0.11162    0.00000
  102     -0.09692    0.00000
  103     -0.09606    0.00000
  104     -0.09340    0.00000
  105     -0.09317    0.00000
  106      0.98876    0.00000
  107      0.99240    0.00000
  108      0.99321    0.00000
  109      1.00593    0.00000
  110      1.01569    0.00000
  111      1.01585    0.00000
  112      2.31690    0.00000
  113      2.31733    0.00000
  114      2.31864    0.00000
  115      2.31976    0.00000
  116      2.32110    0.00000
  117      2.32368    0.00000
  118      3.30616    0.00000
  119      3.61592    0.00000
  120      3.62021    0.00000
  121      3.62537    0.00000
  122      3.63276    0.00000
  123      3.63472    0.00000

Fermi level: -3.94539

Gap: 5.203 eV
Transition (v -> c):
  (s=0, k=0, n=99, [0.00, 0.00, 0.00]) -> (s=0, k=0, n=100, [0.00, 0.00, 0.00])
No difference between direct/indirect transitions

Forces in eV/Ang:
  0 B    -0.02096    0.01198    0.00000
  1 N     0.00744   -0.00391    0.00000
  2 B    -0.02489   -0.03065    0.00000
  3 N     0.00279   -0.01589    0.00000
  4 B    -0.06462   -0.06113    0.00000
  5 N     0.01587   -0.00227    0.00000
  6 B    -0.06976   -0.03016    0.00000
  7 N    -0.00509   -0.00179    0.00000
  8 B    -0.03690    0.01787    0.00000
  9 N     0.00645   -0.00356    0.00000
 10 B    -0.03404    0.02281    0.00000
 11 N     0.01181    0.00178    0.00000
 12 B    -0.01858   -0.03097    0.00000
 13 N     0.00603   -0.01279    0.00000
 14 B    -0.02883   -0.07758    0.00000
 15 N     0.00373   -0.01174    0.00000
 16 B    -0.06759   -0.03556    0.00000
 17 N     0.00136   -0.00065    0.00000
 18 B    -0.06613    0.03802    0.00000
 19 N    -0.00087    0.00551    0.00000
 20 B    -0.00891    0.07528    0.00000
 21 N     0.00612    0.00177    0.00000
 22 B    -0.00377   -0.00700    0.00000
 23 N     0.01084   -0.00714    0.00000
 24 B     0.04003   -0.05123    0.00000
 25 N     0.00583   -0.00323    0.00000
 26 B     0.03809   -0.02215    0.00000
 27 N     0.01217    0.00283    0.00000
 28 B    -0.00313    0.07608    0.00000
 29 N     0.01003   -0.01233    0.00000
 30 B     0.02050    0.08631    0.00000
 31 N     0.00841    0.00234    0.00000
 32 B     0.01222    0.02398    0.00000
 33 N     0.00564   -0.00310    0.00000
 34 B     0.03079   -0.01792    0.00000
 35 N     0.01173   -0.00559    0.00000
 36 B     0.06423   -0.00929    0.00000
 37 N     0.01422    0.00138    0.00000
 38 B     0.05264    0.06351    0.00000
 39 N     0.01528    0.00576    0.00000
 40 B     0.01398    0.03666    0.00000
 41 N     0.00223   -0.00114    0.00000
 42 B     0.00578   -0.00347    0.00000
 43 N     0.00231   -0.00823    0.00000
 44 B    -0.01477   -0.02277    0.00000
 45 N     0.00166   -0.00597    0.00000
 46 B     0.00406    0.00657    0.00000
 47 N     0.00449   -0.01088    0.00000
 48 B     0.01741    0.03137    0.00000
 49 N     0.00725   -0.00425    0.00000

Writing to /Users/denniswayo/gpaw-DFT/emitter2chip/hBN_5x5_pristine/hBN_5x5_pristine_lcao.gpw (mode='all')

Timing:                                       incl.     excl.
--------------------------------------------------------------------
Basic WFS set positions:                      0.007     0.003   0.0% |
 Redistribute:                                0.005     0.005   0.0% |
Basis functions set positions:                0.619     0.619   0.5% |
Forces:                                      28.701     0.322   0.3% |
 LCAO forces:                                28.380     0.007   0.0% |
  Atomic Hamiltonian force:                   0.556     0.556   0.5% |
  Initial:                                    0.031     0.000   0.0% |
   Get density matrix:                        0.031     0.031   0.0% |
  Paw correction:                             0.580     0.580   0.5% |
  Potential:                                 24.320    24.320  20.3% |-------|
  TCI derivative:                             2.884     2.884   2.4% ||
  Wait for sum:                               0.000     0.000   0.0% |
LCAO WFS Initialize:                          7.927     0.113   0.1% |
 Density initialized from wave functions:     2.191     0.141   0.1% |
  Calculate density matrix:                   0.011     0.011   0.0% |
  Construct density:                          2.040     2.040   1.7% ||
  Symmetrize density:                         0.000     0.000   0.0% |
 Hamiltonian:                                 5.623     0.000   0.0% |
  Atomic:                                     1.805     0.007   0.0% |
   XC Correction:                             1.798     1.798   1.5% ||
  Calculate atomic Hamiltonians:              0.019     0.019   0.0% |
  Communicate:                                0.000     0.000   0.0% |
  Hartree integrate/restrict:                 0.143     0.143   0.1% |
  Initialize Hamiltonian:                     0.000     0.000   0.0% |
  Poisson:                                    1.275     0.076   0.1% |
   Communicate from 1D:                       0.138     0.138   0.1% |
   Communicate from 2D:                       0.092     0.092   0.1% |
   Communicate to 1D:                         0.065     0.065   0.1% |
   Communicate to 2D:                         0.261     0.261   0.2% |
   FFT 1D:                                    0.181     0.181   0.2% |
   FFT 2D:                                    0.463     0.463   0.4% |
  XC 3D grid:                                 2.336     2.336   2.0% ||
  vbar:                                       0.044     0.044   0.0% |
P tci:                                        1.383     1.383   1.2% |
Redistribute:                                 0.000     0.000   0.0% |
SCF-cycle:                                   77.242     0.012   0.0% |
 Density:                                    17.752     0.000   0.0% |
  Atomic density matrices:                    0.036     0.036   0.0% |
  Mix:                                        1.313     1.313   1.1% |
  Multipole moments:                          0.008     0.008   0.0% |
  Normalize:                                  0.004     0.004   0.0% |
  Pseudo density:                            16.391     0.008   0.0% |
   Calculate density matrix:                  0.081     0.081   0.1% |
   Construct density:                        16.302    16.302  13.6% |----|
   Symmetrize density:                        0.000     0.000   0.0% |
 Hamiltonian:                                27.103     0.001   0.0% |
  Atomic:                                     9.618     0.035   0.0% |
   XC Correction:                             9.582     9.582   8.0% |--|
  Calculate atomic Hamiltonians:              0.099     0.099   0.1% |
  Communicate:                                0.000     0.000   0.0% |
  Hartree integrate/restrict:                 0.415     0.415   0.3% |
  Poisson:                                    5.854     0.234   0.2% |
   Communicate from 1D:                       0.582     0.582   0.5% |
   Communicate from 2D:                       0.461     0.461   0.4% |
   Communicate to 1D:                         0.348     0.348   0.3% |
   Communicate to 2D:                         0.849     0.849   0.7% |
   FFT 1D:                                    0.969     0.969   0.8% |
   FFT 2D:                                    2.410     2.410   2.0% ||
  XC 3D grid:                                11.021    11.021   9.2% |---|
  vbar:                                       0.095     0.095   0.1% |
 LCAO eigensolver:                           32.375     0.006   0.0% |
  Calculate projections:                      0.142     0.142   0.1% |
  DenseAtomicCorrection:                      0.674     0.674   0.6% |
  Distribute overlap matrix:                  0.000     0.000   0.0% |
  Orbital Layouts:                            4.077     4.077   3.4% ||
  Potential matrix:                          27.475    27.475  23.0% |--------|
ST tci:                                       0.420     0.420   0.4% |
Set symmetry:                                 0.000     0.000   0.0% |
TCI: Evaluate splines:                        0.148     0.148   0.1% |
mktci:                                        0.047     0.047   0.0% |
Other:                                        3.069     3.069   2.6% ||
--------------------------------------------------------------------
Total:                                                119.564 100.0%

Memory usage: 1.89 GiB
Date: Mon Dec 15 16:04:32 2025
