49
Lattice="12.5 0.0 0.0 -6.250000000000001 10.825317547305481 0.0 0.0 0.0 40.0" Properties=species:S:1:pos:R:3:spacegroup_kinds:I:1:magmoms:R:1:forces:R:3 spacegroup="P 1" unit_cell=conventional occupancy="_JSON {\"0\": {\"N\": 1.0}, \"1\": {\"B\": 1.0}, \"2\": {\"N\": 1.0}, \"3\": {\"B\": 1.0}, \"4\": {\"N\": 1.0}, \"5\": {\"B\": 1.0}, \"6\": {\"N\": 1.0}, \"7\": {\"B\": 1.0}, \"8\": {\"N\": 1.0}, \"9\": {\"B\": 1.0}, \"10\": {\"N\": 1.0}, \"11\": {\"B\": 1.0}, \"12\": {\"N\": 1.0}, \"13\": {\"B\": 1.0}, \"14\": {\"N\": 1.0}, \"15\": {\"B\": 1.0}, \"16\": {\"N\": 1.0}, \"17\": {\"B\": 1.0}, \"18\": {\"N\": 1.0}, \"19\": {\"B\": 1.0}, \"20\": {\"N\": 1.0}, \"21\": {\"B\": 1.0}, \"22\": {\"N\": 1.0}, \"23\": {\"B\": 1.0}, \"24\": {\"N\": 1.0}, \"25\": {\"B\": 1.0}, \"26\": {\"N\": 1.0}, \"27\": {\"B\": 1.0}, \"28\": {\"N\": 1.0}, \"29\": {\"B\": 1.0}, \"30\": {\"N\": 1.0}, \"31\": {\"B\": 1.0}, \"32\": {\"N\": 1.0}, \"33\": {\"B\": 1.0}, \"34\": {\"N\": 1.0}, \"35\": {\"B\": 1.0}, \"36\": {\"N\": 1.0}, \"37\": {\"B\": 1.0}, \"38\": {\"N\": 1.0}, \"39\": {\"B\": 1.0}, \"40\": {\"N\": 1.0}, \"41\": {\"B\": 1.0}, \"42\": {\"N\": 1.0}, \"43\": {\"B\": 1.0}, \"44\": {\"N\": 1.0}, \"45\": {\"B\": 1.0}, \"46\": {\"N\": 1.0}, \"47\": {\"B\": 1.0}, \"48\": {\"N\": 1.0}}" energy=-403.2148975036008 free_energy=-403.27188717102257 dipole="-15.647022116154503 -5.874599476158291 -7.940739487180213e-11" magmom=-6.6901488734060814e-09 pbc="T T T"
N       -0.00213334       1.48250360      20.00000000        0      -0.00000000      -0.00369980      -0.06961460       0.00000000
B       -1.25730177       2.12848630      20.00000000        1      -0.00000000       0.00036810      -0.00618699       0.00000000
N       -1.24826440       3.59625575      20.00000000        2      -0.00000000      -0.00990234       0.01892605       0.00000000
B       -2.50346064       4.31879853      20.00000000        3      -0.00000000      -0.01677910       0.02011153       0.00000000
N       -2.50504933       5.76903760      20.00000000        4      -0.00000000      -0.00499923      -0.00313137       0.00000000
B       -3.75994063       6.49663622      20.00000000        5      -0.00000000       0.01077971      -0.02712772       0.00000000
N       -3.75820709       7.94647731      20.00000000        6      -0.00000000       0.01689242      -0.02265202       0.00000000
B       -5.03444990       8.67232560      20.00000000        7      -0.00000000       0.00029865      -0.00334122       0.00000000
N       -4.96411246      10.08289692      20.00000000        8      -0.00000000      -0.04051000       0.02336520       0.00000000
B        2.47231892       0.02379998      20.00000000        9      -0.00000000       0.00280699       0.00129502       0.00000000
N        2.51822213       1.45416763      20.00000000       10      -0.00000000       0.03113030       0.01275214       0.00000000
B        1.25554030       2.12786001      20.00000000       11      -0.00000000      -0.00360729      -0.01891164       0.00000000
N        1.24474371       3.59636841      20.00000000       12      -0.00000000       0.00546548       0.01305516       0.00000000
B       -0.00135193       4.31929808      20.00000000       13       0.00000000      -0.00090323      -0.02628552       0.00000000
N       -0.00096418       5.76836880      20.00000000       14      -0.00000000      -0.00335178      -0.01410433       0.00000000
B       -1.25308790       6.49297448      20.00000000       15      -0.00000000      -0.00072825       0.00124313       0.00000000
N       -1.25362972       7.94065828      20.00000000       16      -0.00000000      -0.01074303       0.00623269       0.00000000
B       -2.50847581       8.66514962      20.00000000       17       0.00000000      -0.02031303       0.01167344       0.00000000
N       -2.51096038      10.10677575      20.00000000       18      -0.00000000       0.02799972      -0.00325416       0.00000000
B        4.99377881       0.00789042      20.00000000       19      -0.00000000       0.02887726       0.00421096       0.00000000
N        5.00405687       1.44761512      20.00000000       20      -0.00000000       0.02073067       0.00719469       0.00000000
B        3.75837486       2.16905320      20.00000000       21      -0.00000000       0.02675900       0.01236812       0.00000000
N        3.75528581       3.60848234      20.00000000       22      -0.00000000       0.01397248       0.01072370       0.00000000
B        2.50277334       4.31938536      20.00000000       23      -0.00000000       0.01421443       0.01415365       0.00000000
N        2.50461717       5.77083441      20.00000000       24      -0.00000000       0.00398972      -0.00228004       0.00000000
B        1.25235776       6.49383126      20.00000000       25      -0.00000000       0.00049509      -0.00028739       0.00000000
N        1.25396229       7.94196340      20.00000000       26      -0.00000000       0.01057898       0.01000604       0.00000000
B        0.00037701       8.66403967      20.00000000       27      -0.00000000      -0.00143702      -0.00000630       0.00000000
N        0.00134042      10.11023108      20.00000000       28      -0.00000000       0.00023239       0.00592024       0.00000000
B        7.50808405       0.00866629      20.00000000       29      -0.00000000      -0.02570232       0.00445658       0.00000000
N        7.49838293       1.44780020      20.00000000       30      -0.00000000      -0.01565124       0.00705603       0.00000000
B        6.25129352       2.16687332      20.00000000       31      -0.00000000       0.00113052       0.00143858       0.00000000
N        6.25117294       3.60775970      20.00000000       32      -0.00000000      -0.00089807       0.00049128       0.00000000
B        5.00280385       4.32851054      20.00000000       33      -0.00000000      -0.00022192       0.00011916       0.00000000
N        5.00260288       5.76889839      20.00000000       34      -0.00000000      -0.00233202      -0.01748080       0.00000000
B        3.76069188       6.49816314      20.00000000       35      -0.00000000      -0.00510486      -0.01930977       0.00000000
N        3.75782956       7.94915429      20.00000000       36      -0.00000000      -0.00874858      -0.01125702       0.00000000
B        2.50870495       8.66684299      20.00000000       37      -0.00000000       0.02245572       0.01394707       0.00000000
N        2.51142745      10.10821548      20.00000000       38      -0.00000000      -0.02137994      -0.00098960       0.00000000
B       10.02803325       0.02461552      20.00000000       39      -0.00000000       0.00642426       0.00255455       0.00000000
N        9.98130482       1.45416373      20.00000000       40      -0.00000000      -0.02723249       0.01590310       0.00000000
B        8.74283270       2.16920477      20.00000000       41      -0.00000000      -0.01683144       0.00973404       0.00000000
N        8.74535787       3.60762359      20.00000000       42      -0.00000000      -0.01397542       0.01000505       0.00000000
B        7.49908276       4.32810615      20.00000000       43      -0.00000000      -0.00066891      -0.00170053       0.00000000
N        7.49835543       5.76786477      20.00000000       44      -0.00000000       0.00412844      -0.02159120       0.00000000
B        6.25073503       6.48594388      20.00000000       45      -0.00000000       0.00268186      -0.02933020       0.00000000
N        6.24976020       7.91738117      20.00000000       46      -0.00000000       0.00467171      -0.03349237       0.00000000
B        5.03499391       8.67406130      20.00000000       47      -0.00000000       0.01480511       0.01319272       0.00000000
N        4.96511810      10.08594119      20.00000000       48      -0.00000000       0.05641986       0.03669089       0.00000000
