
  ___ ___ ___ _ _ _  
 |   |   |_  | | | | 
 | | | | | . | | | | 
 |__ |  _|___|_____|  25.1.0
 |___|_|             

User:   denniswayo@Delas-MacBook-Pro.local
Date:   Mon Dec 15 15:09:07 2025
Arch:   x86_64
Pid:    37091
CWD:    /Users/denniswayo/gpaw-DFT/emitter2chip
Python: 3.9.22
gpaw:   /Users/denniswayo/miniforge-x86_64/envs/gpaw-tddft-legacy/lib/python3.9/site-packages/gpaw
_gpaw:  /Users/denniswayo/miniforge-x86_64/envs/gpaw-tddft-legacy/lib/python3.9/site-packages/
        _gpaw.cpython-39-darwin.so
ase:    /Users/denniswayo/miniforge-x86_64/envs/gpaw-tddft-legacy/lib/python3.9/site-packages/ase (version 3.25.0)
numpy:  /Users/denniswayo/miniforge-x86_64/envs/gpaw-tddft-legacy/lib/python3.9/site-packages/numpy (version 1.26.4)
scipy:  /Users/denniswayo/miniforge-x86_64/envs/gpaw-tddft-legacy/lib/python3.9/site-packages/scipy (version 1.13.1)
libxc:  5.1.7
units:  Angstrom and eV
cores: 1
OpenMP: False
OMP_NUM_THREADS: 1

Input parameters:
  basis: dzp
  kpts: [1 1 1]
  mode: lcao
  occupations: {fixmagmom: False,
                name: fermi-dirac,
                width: 0.05}
  spinpol: True
  symmetry: off
  xc: PBE

System changes: positions, numbers, cell, pbc, initial_charges, initial_magmoms 

Initialize ...

species:
  N:
    name: Nitrogen
    id: f7500608b86eaa90eef8b1d9a670dc53
    Z: 7.0
    valence: 5
    core: 2
    charge: 0.0
    file: /Users/denniswayo/miniforge-x86_64/envs/gpaw-tddft-legacy/lib/python3.9/site-packages/gpaw_data/setups/gpaw-setups-0.9.20000/N.PBE.gz
    compensation charges: {type: gauss,
                           rc: 0.18,
                           lmax: 2}
    cutoffs: {filter: 1.11,
              core: 0.96}
    projectors:
      #              energy  rcut
      - 2s(2.00)   -18.583   0.603
      - 2p(3.00)    -7.089   0.529
      -  s           8.629   0.603
      -  p          20.123   0.529
      -  d           0.000   0.577
  
    # LCAO basis set for N:
    #   Name: dzp
    #   File: /Users/denniswayo/miniforge-x86_64/envs/gpaw-tddft-legacy/lib/python3.9/site-packages/gpaw_data/setups/gpaw-setups-0.9.20000/N.dzp.basis.gz
    #   Number of radial functions: 5
    #   Number of spherical harmonics: 13
    #     l=0, rc=4.8594 Bohr: 2s-sz confined orbital
    #     l=1, rc=6.0625 Bohr: 2p-sz confined orbital
    #     l=0, rc=2.6094 Bohr: 2s-dz split-valence wave
    #     l=1, rc=3.2656 Bohr: 2p-dz split-valence wave
    #     l=2, rc=6.0625 Bohr: d-type Gaussian polarization
    #   Number of RI-basis functions 0

  B:
    name: Boron
    id: 6e91439235a05fd7549e31636e8f777c
    Z: 5.0
    valence: 3
    core: 2
    charge: 0.0
    file: /Users/denniswayo/miniforge-x86_64/envs/gpaw-tddft-legacy/lib/python3.9/site-packages/gpaw_data/setups/gpaw-setups-0.9.20000/B.PBE.gz
    compensation charges: {type: gauss,
                           rc: 0.20,
                           lmax: 2}
    cutoffs: {filter: 1.14,
              core: 1.38}
    projectors:
      #              energy  rcut
      - 2s(2.00)    -9.443   0.635
      - 2p(1.00)    -3.606   0.635
      -  s          17.768   0.635
      -  p          23.605   0.635
      -  d           0.000   0.635
  
    # LCAO basis set for B:
    #   Name: dzp
    #   File: /Users/denniswayo/miniforge-x86_64/envs/gpaw-tddft-legacy/lib/python3.9/site-packages/gpaw_data/setups/gpaw-setups-0.9.20000/B.dzp.basis.gz
    #   Number of radial functions: 5
    #   Number of spherical harmonics: 13
    #     l=0, rc=6.6719 Bohr: 2s-sz confined orbital
    #     l=1, rc=8.2188 Bohr: 2p-sz confined orbital
    #     l=0, rc=3.7500 Bohr: 2s-dz split-valence wave
    #     l=1, rc=4.6094 Bohr: 2p-dz split-valence wave
    #     l=2, rc=8.2188 Bohr: d-type Gaussian polarization
    #   Number of RI-basis functions 0

Reference energy: -53110.787219  # eV

Spin-polarized calculation.
Magnetic moment: 0.000000

Convergence criteria:
 Maximum [total energy] change in last 3 cyles: 0.0005 eV / valence electron
 Maximum integral of absolute [dens]ity change: 0.0001 electrons / valence electron
 Maximum integral of absolute [eigenst]ate change: 4e-08 eV^2 / valence electron
 Maximum number of scf [iter]ations: 333
 (Square brackets indicate name in SCF output, whereas a 'c' in
 the SCF output indicates the quantity has converged.)

Symmetries present (total): 1

  ( 1  0  0)
  ( 0  1  0)
  ( 0  0  1)

1 k-point (Gamma)
1 k-point in the irreducible part of the Brillouin zone
       k-points in crystal coordinates                weights
   0:     0.00000000    0.00000000    0.00000000          1/1

Wave functions: LCAO
  Diagonalizer: Serial LAPACK
  Atomic Correction: dense with blas
  Data-type: float
 

Occupation numbers: Fermi-Dirac:
  width: 0.0500  # eV
 

Eigensolver
   LCAO using direct dense diagonalizer 

Densities:
  Coarse grid: 56*56*200 grid
  Fine grid: 112*112*400 grid
  Total Charge: 0.000000 

Density mixing:
  Method: difference
  Backend: pulay
  Linear mixing parameter: 0.05
  old densities: 5
  Damping of long wavelength oscillations: 50 

Hamiltonian:
  XC and Coulomb potentials evaluated on a 112*112*400 grid
  Using the PBE Exchange-Correlation functional
  Interpolation: tri-quintic (5. degree polynomial)
  Poisson solver: FastPoissonSolver using
    Stencil: 8*3+1=25 point O(h^6) finite-difference Laplacian
    FFT axes: [0, 1, 2]
    FST axes: []
 

XC parameters: PBE with 2 nearest neighbor stencil

Memory estimate:
  Process memory now: 1932.24 MiB
  Calculator: 487.93 MiB
    Density: 259.60 MiB
      Arrays: 167.48 MiB
      Localized functions: 25.13 MiB
      Mixer: 66.99 MiB
    Hamiltonian: 126.48 MiB
      Arrays: 124.41 MiB
      XC: 0.00 MiB
      Poisson: 0.00 MiB
      vbar: 2.07 MiB
    Wavefunctions: 101.85 MiB
      C [qnM]: 0.60 MiB
      S, T [2 x qmm]: 6.19 MiB
      P [aqMi]: 0.39 MiB
      BasisFunctions: 94.67 MiB
      Eigensolver: 0.00 MiB

Total number of cores used: 1

Number of atoms: 49
Number of atomic orbitals: 637
Number of bands in calculation: 123
Number of valence electrons: 197
Bands to converge: occupied

... initialized

Initializing position-dependent things.

Density initialized from atomic densities
                                                            
                                                            
                                                            
                                                            
              N     N     N     N     N                     
             B N   B  N  B  N  B  N  B  N                   
              B      B     B     B     B                    
                BN    BN     B     BN    BN                 
                   N     N     N     N      N               
                  B  N  B  N  B  N  B  N   B N              
                          B     B     B     B               
                                                            
                                                            
                                                            
                                                            

Positions:
   0 N     -0.000000    1.443376   20.000000    ( 0.0000,  0.0000,  0.0000)
   1 B     -1.250000    2.165064   20.000000    ( 0.0000,  0.0000,  0.0000)
   2 N     -1.250000    3.608439   20.000000    ( 0.0000,  0.0000,  0.0000)
   3 B     -2.500000    4.330127   20.000000    ( 0.0000,  0.0000,  0.0000)
   4 N     -2.500000    5.773503   20.000000    ( 0.0000,  0.0000,  0.0000)
   5 B     -3.750000    6.495191   20.000000    ( 0.0000,  0.0000,  0.0000)
   6 N     -3.750000    7.938566   20.000000    ( 0.0000,  0.0000,  0.0000)
   7 B     -5.000000    8.660254   20.000000    ( 0.0000,  0.0000,  0.0000)
   8 N     -5.000000   10.103630   20.000000    ( 0.0000,  0.0000,  0.0000)
   9 B      2.500000    0.000000   20.000000    ( 0.0000,  0.0000,  0.0000)
  10 N      2.500000    1.443376   20.000000    ( 0.0000,  0.0000,  0.0000)
  11 B      1.250000    2.165064   20.000000    ( 0.0000,  0.0000,  0.0000)
  12 N      1.250000    3.608439   20.000000    ( 0.0000,  0.0000,  0.0000)
  13 B     -0.000000    4.330127   20.000000    ( 0.0000,  0.0000,  0.0000)
  14 N     -0.000000    5.773503   20.000000    ( 0.0000,  0.0000,  0.0000)
  15 B     -1.250000    6.495191   20.000000    ( 0.0000,  0.0000,  0.0000)
  16 N     -1.250000    7.938566   20.000000    ( 0.0000,  0.0000,  0.0000)
  17 B     -2.500000    8.660254   20.000000    ( 0.0000,  0.0000,  0.0000)
  18 N     -2.500000   10.103630   20.000000    ( 0.0000,  0.0000,  0.0000)
  19 B      5.000000    0.000000   20.000000    ( 0.0000,  0.0000,  0.0000)
  20 N      5.000000    1.443376   20.000000    ( 0.0000,  0.0000,  0.0000)
  21 B      3.750000    2.165064   20.000000    ( 0.0000,  0.0000,  0.0000)
  22 N      3.750000    3.608439   20.000000    ( 0.0000,  0.0000,  0.0000)
  23 B      2.500000    4.330127   20.000000    ( 0.0000,  0.0000,  0.0000)
  24 N      2.500000    5.773503   20.000000    ( 0.0000,  0.0000,  0.0000)
  25 B      1.250000    6.495191   20.000000    ( 0.0000,  0.0000,  0.0000)
  26 N      1.250000    7.938566   20.000000    ( 0.0000,  0.0000,  0.0000)
  27 B     -0.000000    8.660254   20.000000    ( 0.0000,  0.0000,  0.0000)
  28 N     -0.000000   10.103630   20.000000    ( 0.0000,  0.0000,  0.0000)
  29 B      7.500000    0.000000   20.000000    ( 0.0000,  0.0000,  0.0000)
  30 N      7.500000    1.443376   20.000000    ( 0.0000,  0.0000,  0.0000)
  31 B      6.250000    2.165064   20.000000    ( 0.0000,  0.0000,  0.0000)
  32 N      6.250000    3.608439   20.000000    ( 0.0000,  0.0000,  0.0000)
  33 B      5.000000    4.330127   20.000000    ( 0.0000,  0.0000,  0.0000)
  34 N      5.000000    5.773503   20.000000    ( 0.0000,  0.0000,  0.0000)
  35 B      3.750000    6.495191   20.000000    ( 0.0000,  0.0000,  0.0000)
  36 N      3.750000    7.938566   20.000000    ( 0.0000,  0.0000,  0.0000)
  37 B      2.500000    8.660254   20.000000    ( 0.0000,  0.0000,  0.0000)
  38 N      2.500000   10.103630   20.000000    ( 0.0000,  0.0000,  0.0000)
  39 B     10.000000    0.000000   20.000000    ( 0.0000,  0.0000,  0.0000)
  40 N     10.000000    1.443376   20.000000    ( 0.0000,  0.0000,  0.0000)
  41 B      8.750000    2.165064   20.000000    ( 0.0000,  0.0000,  0.0000)
  42 N      8.750000    3.608439   20.000000    ( 0.0000,  0.0000,  0.0000)
  43 B      7.500000    4.330127   20.000000    ( 0.0000,  0.0000,  0.0000)
  44 N      7.500000    5.773503   20.000000    ( 0.0000,  0.0000,  0.0000)
  45 B      6.250000    6.495191   20.000000    ( 0.0000,  0.0000,  0.0000)
  46 N      6.250000    7.938566   20.000000    ( 0.0000,  0.0000,  0.0000)
  47 B      5.000000    8.660254   20.000000    ( 0.0000,  0.0000,  0.0000)
  48 N      5.000000   10.103630   20.000000    ( 0.0000,  0.0000,  0.0000)

Unit cell:
           periodic     x           y           z      points  spacing
  1. axis:    yes   12.500000    0.000000    0.000000    56     0.1933
  2. axis:    yes   -6.250000   10.825318    0.000000    56     0.1933
  3. axis:    yes    0.000000    0.000000   40.000000   200     0.2000

  Lengths:  12.500000  12.500000  40.000000
  Angles:   90.000000  90.000000 120.000000

Effective grid spacing dv^(1/3) = 0.2051

     iter     time        total  log10-change:  magmom
                         energy   eigst   dens
iter:   1 15:09:18  -422.573357        c          +0.0000
iter:   2 15:09:27  -418.275103        c -0.77    -0.0000
iter:   3 15:09:36  -404.020012        c -0.81    -0.0000
iter:   4 15:09:46  -403.851781        c -1.14    -0.0000
iter:   5 15:09:55  -403.735194        c -1.16    -0.0000
iter:   6 15:10:04  -404.828134        c -1.39    -0.0000
iter:   7 15:10:14  -404.807226        c -1.58    -0.0000
iter:   8 15:10:23  -403.404658        c -1.65    -0.0000
iter:   9 15:10:32  -403.399723        c -1.94    +0.0000
iter:  10 15:10:41  -403.069157        c -1.93    -0.0000
iter:  11 15:10:50  -402.946253        c -1.97    -0.0000
iter:  12 15:10:59  -402.902330        c -2.09    -0.0000
iter:  13 15:11:08  -402.928359c       c -2.37    -0.0000
iter:  14 15:11:17  -402.899822c       c -2.32    -0.0000
iter:  15 15:11:27  -402.890566c       c -2.45    -0.0000
iter:  16 15:11:36  -402.906697c       c -2.37    -0.0000
iter:  17 15:11:45  -402.880540c       c -2.51    -0.0000
iter:  18 15:11:54  -402.879076c       c -2.97    -0.0000
iter:  19 15:12:04  -402.876673c       c -2.98    -0.0000
iter:  20 15:12:13  -402.884464c       c -2.89    -0.0000
iter:  21 15:12:22  -402.882025c       c -3.27    -0.0000
iter:  22 15:12:31  -402.880989c       c -3.55    +0.0000
iter:  23 15:12:40  -402.883646c       c -3.52    +0.0000
iter:  24 15:12:50  -402.882092c       c -3.56    +0.0000
iter:  25 15:12:59  -402.881761c       c -4.01c   +0.0000

Converged after 25 iterations.

Dipole moment: (-24.391857, -0.977556, 0.000000) |e|*Ang

Total magnetic moment: (0.000000, 0.000000, 0.000000)
Local magnetic moments:
   0 N  ( 0.000000,  0.000000,  0.000000)
   1 B  ( 0.000000,  0.000000,  0.000000)
   2 N  ( 0.000000,  0.000000,  0.000000)
   3 B  ( 0.000000,  0.000000,  0.000000)
   4 N  ( 0.000000,  0.000000,  0.000000)
   5 B  ( 0.000000,  0.000000,  0.000000)
   6 N  ( 0.000000,  0.000000,  0.000000)
   7 B  ( 0.000000,  0.000000,  0.000000)
   8 N  ( 0.000000,  0.000000,  0.000000)
   9 B  ( 0.000000,  0.000000, -0.000000)
  10 N  ( 0.000000,  0.000000,  0.000000)
  11 B  ( 0.000000,  0.000000,  0.000000)
  12 N  ( 0.000000,  0.000000,  0.000000)
  13 B  ( 0.000000,  0.000000, -0.000000)
  14 N  ( 0.000000,  0.000000,  0.000000)
  15 B  ( 0.000000,  0.000000,  0.000000)
  16 N  ( 0.000000,  0.000000,  0.000000)
  17 B  ( 0.000000,  0.000000,  0.000000)
  18 N  ( 0.000000,  0.000000,  0.000000)
  19 B  ( 0.000000,  0.000000, -0.000000)
  20 N  ( 0.000000,  0.000000,  0.000000)
  21 B  ( 0.000000,  0.000000, -0.000000)
  22 N  ( 0.000000,  0.000000,  0.000000)
  23 B  ( 0.000000,  0.000000,  0.000000)
  24 N  ( 0.000000,  0.000000,  0.000000)
  25 B  ( 0.000000,  0.000000,  0.000000)
  26 N  ( 0.000000,  0.000000, -0.000000)
  27 B  ( 0.000000,  0.000000, -0.000000)
  28 N  ( 0.000000,  0.000000, -0.000000)
  29 B  ( 0.000000,  0.000000, -0.000000)
  30 N  ( 0.000000,  0.000000,  0.000000)
  31 B  ( 0.000000,  0.000000, -0.000000)
  32 N  ( 0.000000,  0.000000,  0.000000)
  33 B  ( 0.000000,  0.000000,  0.000000)
  34 N  ( 0.000000,  0.000000, -0.000000)
  35 B  ( 0.000000,  0.000000,  0.000000)
  36 N  ( 0.000000,  0.000000, -0.000000)
  37 B  ( 0.000000,  0.000000,  0.000000)
  38 N  ( 0.000000,  0.000000, -0.000000)
  39 B  ( 0.000000,  0.000000, -0.000000)
  40 N  ( 0.000000,  0.000000,  0.000000)
  41 B  ( 0.000000,  0.000000,  0.000000)
  42 N  ( 0.000000,  0.000000,  0.000000)
  43 B  ( 0.000000,  0.000000,  0.000000)
  44 N  ( 0.000000,  0.000000,  0.000000)
  45 B  ( 0.000000,  0.000000,  0.000000)
  46 N  ( 0.000000,  0.000000, -0.000000)
  47 B  ( 0.000000,  0.000000,  0.000000)
  48 N  ( 0.000000,  0.000000, -0.000000)

Energy contributions relative to reference atoms: (reference = -53110.787219)

Kinetic:       +370.012627
Potential:     -376.349973
External:        +0.000000
XC:            -412.421354
Entropy (-ST):   -0.131324
Local:          +15.942601
SIC:             +0.000000
--------------------------
Free energy:   -402.947423
Extrapolated:  -402.881761

Spin contamination: 0.000000 electrons
                   Up                     Down
 Band  Eigenvalues  Occupancy  Eigenvalues  Occupancy
    0    -22.86683    1.00000    -22.86683    1.00000
    1    -22.21401    1.00000    -22.21401    1.00000
    2    -22.21401    1.00000    -22.21401    1.00000
    3    -22.17317    1.00000    -22.17317    1.00000
    4    -22.09912    1.00000    -22.09912    1.00000
    5    -22.09877    1.00000    -22.09877    1.00000
    6    -21.64797    1.00000    -21.64797    1.00000
    7    -20.90049    1.00000    -20.90049    1.00000
    8    -20.81996    1.00000    -20.81996    1.00000
    9    -20.81977    1.00000    -20.81977    1.00000
   10    -20.72209    1.00000    -20.72209    1.00000
   11    -20.72200    1.00000    -20.72200    1.00000
   12    -20.60020    1.00000    -20.60020    1.00000
   13    -20.37330    1.00000    -20.37330    1.00000
   14    -20.37299    1.00000    -20.37299    1.00000
   15    -20.31960    1.00000    -20.31960    1.00000
   16    -20.08367    1.00000    -20.08367    1.00000
   17    -20.08356    1.00000    -20.08356    1.00000
   18    -19.76194    1.00000    -19.76194    1.00000
   19    -19.54859    1.00000    -19.54859    1.00000
   20    -19.54837    1.00000    -19.54837    1.00000
   21    -19.51594    1.00000    -19.51594    1.00000
   22    -19.23140    1.00000    -19.23140    1.00000
   23    -18.87670    1.00000    -18.87670    1.00000
   24    -18.87525    1.00000    -18.87525    1.00000
   25    -13.71056    1.00000    -13.71056    1.00000
   26    -13.69356    1.00000    -13.69356    1.00000
   27    -13.69320    1.00000    -13.69320    1.00000
   28    -13.56533    1.00000    -13.56533    1.00000
   29    -13.52866    1.00000    -13.52866    1.00000
   30    -13.52843    1.00000    -13.52843    1.00000
   31    -13.28419    1.00000    -13.28419    1.00000
   32    -13.28098    1.00000    -13.28098    1.00000
   33    -13.28044    1.00000    -13.28044    1.00000
   34    -13.02297    1.00000    -13.02297    1.00000
   35    -13.02185    1.00000    -13.02185    1.00000
   36    -12.59657    1.00000    -12.59657    1.00000
   37    -11.71808    1.00000    -11.71808    1.00000
   38    -11.64571    1.00000    -11.64571    1.00000
   39    -11.64507    1.00000    -11.64507    1.00000
   40    -11.60735    1.00000    -11.60735    1.00000
   41    -11.60702    1.00000    -11.60702    1.00000
   42    -11.43316    1.00000    -11.43316    1.00000
   43    -11.17876    1.00000    -11.17876    1.00000
   44    -11.17866    1.00000    -11.17866    1.00000
   45    -11.07511    1.00000    -11.07511    1.00000
   46    -10.87239    1.00000    -10.87239    1.00000
   47    -10.87228    1.00000    -10.87228    1.00000
   48    -10.48828    1.00000    -10.48828    1.00000
   49    -10.32516    1.00000    -10.32516    1.00000
   50     -9.93088    1.00000     -9.93088    1.00000
   51     -9.93039    1.00000     -9.93039    1.00000
   52     -9.89760    1.00000     -9.89760    1.00000
   53     -9.76783    1.00000     -9.76783    1.00000
   54     -9.76778    1.00000     -9.76778    1.00000
   55     -9.48687    1.00000     -9.48687    1.00000
   56     -9.41006    1.00000     -9.41006    1.00000
   57     -9.40994    1.00000     -9.40994    1.00000
   58     -9.39142    1.00000     -9.39142    1.00000
   59     -9.29371    1.00000     -9.29371    1.00000
   60     -9.29338    1.00000     -9.29338    1.00000
   61     -9.20765    1.00000     -9.20765    1.00000
   62     -9.20727    1.00000     -9.20727    1.00000
   63     -9.20303    1.00000     -9.20303    1.00000
   64     -9.20244    1.00000     -9.20244    1.00000
   65     -9.19085    1.00000     -9.19085    1.00000
   66     -9.17658    1.00000     -9.17658    1.00000
   67     -9.07673    1.00000     -9.07673    1.00000
   68     -9.07561    1.00000     -9.07561    1.00000
   69     -9.05566    1.00000     -9.05566    1.00000
   70     -8.76742    1.00000     -8.76742    1.00000
   71     -8.31535    1.00000     -8.31535    1.00000
   72     -8.31469    1.00000     -8.31469    1.00000
   73     -7.77460    1.00000     -7.77460    1.00000
   74     -7.69993    1.00000     -7.69993    1.00000
   75     -7.66269    1.00000     -7.66269    1.00000
   76     -7.66213    1.00000     -7.66213    1.00000
   77     -7.57504    1.00000     -7.57504    1.00000
   78     -7.55805    1.00000     -7.55805    1.00000
   79     -7.48899    1.00000     -7.48899    1.00000
   80     -7.48886    1.00000     -7.48886    1.00000
   81     -7.40705    1.00000     -7.40705    1.00000
   82     -7.40681    1.00000     -7.40681    1.00000
   83     -7.22468    1.00000     -7.22468    1.00000
   84     -6.79711    1.00000     -6.79711    1.00000
   85     -6.79664    1.00000     -6.79664    1.00000
   86     -6.79208    1.00000     -6.79208    1.00000
   87     -6.79023    1.00000     -6.79023    1.00000
   88     -6.78042    1.00000     -6.78042    1.00000
   89     -6.61612    1.00000     -6.61612    1.00000
   90     -6.61537    1.00000     -6.61537    1.00000
   91     -6.09476    1.00000     -6.09476    1.00000
   92     -5.54255    1.00000     -5.54255    1.00000
   93     -5.54225    1.00000     -5.54225    1.00000
   94     -5.50069    0.99999     -5.50069    0.99999
   95     -5.17484    0.99644     -5.17484    0.99644
   96     -5.17284    0.99629     -5.17284    0.99629
   97     -5.08120    0.97726     -5.08120    0.97726
   98     -4.84256    0.26652     -4.84256    0.26652
   99     -4.84179    0.26351     -4.84179    0.26351
  100     -0.28658    0.00000     -0.28658    0.00000
  101     -0.28629    0.00000     -0.28629    0.00000
  102     -0.22428    0.00000     -0.22428    0.00000
  103     -0.22410    0.00000     -0.22410    0.00000
  104     -0.16328    0.00000     -0.16328    0.00000
  105      0.26465    0.00000      0.26465    0.00000
  106      0.85218    0.00000      0.85218    0.00000
  107      0.85240    0.00000      0.85240    0.00000
  108      0.85324    0.00000      0.85324    0.00000
  109      0.97440    0.00000      0.97440    0.00000
  110      0.97452    0.00000      0.97452    0.00000
  111      1.57575    0.00000      1.57575    0.00000
  112      2.14800    0.00000      2.14800    0.00000
  113      2.18597    0.00000      2.18597    0.00000
  114      2.18613    0.00000      2.18613    0.00000
  115      2.27226    0.00000      2.27226    0.00000
  116      2.27310    0.00000      2.27310    0.00000
  117      3.19795    0.00000      3.19795    0.00000
  118      3.47952    0.00000      3.47952    0.00000
  119      3.50015    0.00000      3.50015    0.00000
  120      3.50130    0.00000      3.50130    0.00000
  121      3.61344    0.00000      3.61344    0.00000
  122      3.61544    0.00000      3.61544    0.00000

Fermi level: -4.89317

Gap: 0.239 eV
Transition (v -> c):
  (s=1, k=0, n=97, [0.00, 0.00, 0.00]) -> (s=0, k=0, n=98, [0.00, 0.00, 0.00])
No difference between direct/indirect transitions

Forces in eV/Ang:
  0 N    -0.05614    1.57207    0.00000
  1 B     0.07905   -1.97261    0.00000
  2 N     0.35882    0.34784    0.00000
  3 B    -0.29776   -0.23157    0.00000
  4 N     0.03233   -0.00912    0.00000
  5 B    -0.33937   -0.16343    0.00000
  6 N     0.51335    0.15667    0.00000
  7 B    -1.66353    1.03368    0.00000
  8 N     1.33351   -0.77013    0.00000
  9 B    -1.72677    0.92417    0.00000
 10 N     0.63281    0.38655    0.00000
 11 B    -0.06391   -1.96951    0.00000
 12 N    -0.44838    0.36439    0.00000
 13 B     0.01126   -0.09212    0.00000
 14 N    -0.03122   -0.05820    0.00000
 15 B     0.00234   -0.01223    0.00000
 16 N    -0.04176    0.02386    0.00000
 17 B    -0.06258    0.03637    0.00000
 18 N     0.12078   -0.52328    0.00000
 19 B    -0.02795    0.37599    0.00000
 20 N     0.13850    0.00890    0.00000
 21 B    -0.27320   -0.16852    0.00000
 22 N     0.05737    0.08889    0.00000
 23 B     0.31881   -0.22990    0.00000
 24 N    -0.06680    0.03833    0.00000
 25 B     0.02105   -0.01191    0.00000
 26 N     0.03458    0.05577    0.00000
 27 B     0.01197    0.00445    0.00000
 28 N     0.02386   -0.02382    0.00000
 29 B     0.05186    0.37404    0.00000
 30 N    -0.08067    0.01364    0.00000
 31 B     0.01123   -0.03219    0.00000
 32 N     0.03320   -0.01942    0.00000
 33 B    -0.01268    0.00757    0.00000
 34 N    -0.04851   -0.09450    0.00000
 35 B     0.35871   -0.16081    0.00000
 36 N    -0.53994    0.20580    0.00000
 37 B     0.08561    0.03667    0.00000
 38 N    -0.12198   -0.48503    0.00000
 39 B     1.74800    0.91820    0.00000
 40 N    -0.68359    0.39442    0.00000
 41 B     0.29551   -0.17036    0.00000
 42 N    -0.05237    0.06266    0.00000
 43 B     0.03371    0.00674    0.00000
 44 N     0.06131   -0.12478    0.00000
 45 B     0.00956    0.32122    0.00000
 46 N    -0.01857   -0.74168    0.00000
 47 B     1.67387    1.04039    0.00000
 48 N    -1.38949   -0.73763    0.00000

System changes: positions 

Initializing position-dependent things.

Density initialized from wave functions
                                                            
                                                            
                                                            
                                                            
              N     N     N     N     N                     
             B N   B  N  B  N  B  N   B N                   
              B      B     B     B     B                    
                BN    BN     B     BN    BN                 
                   N     N     N     N     N                
                  B  N  B  N  B  N  B  N   B N              
                          B     B     B     B               
                                                            
                                                            
                                                            
                                                            

Positions:
   0 N     -0.000802    1.465834   20.000000    ( 0.0000,  0.0000,  0.0000)
   1 B     -1.248871    2.136883   20.000000    ( 0.0000,  0.0000,  0.0000)
   2 N     -1.244874    3.613408   20.000000    ( 0.0000,  0.0000,  0.0000)
   3 B     -2.504254    4.326819   20.000000    ( 0.0000,  0.0000,  0.0000)
   4 N     -2.499538    5.773372   20.000000    ( 0.0000,  0.0000,  0.0000)
   5 B     -3.754848    6.492856   20.000000    ( 0.0000,  0.0000,  0.0000)
   6 N     -3.742666    7.940804   20.000000    ( 0.0000,  0.0000,  0.0000)
   7 B     -5.023765    8.675021   20.000000    ( 0.0000,  0.0000,  0.0000)
   8 N     -4.980950   10.092628   20.000000    ( 0.0000,  0.0000,  0.0000)
   9 B      2.475332    0.013202   20.000000    ( 0.0000,  0.0000,  0.0000)
  10 N      2.509040    1.448898   20.000000    ( 0.0000,  0.0000,  0.0000)
  11 B      1.249087    2.136928   20.000000    ( 0.0000,  0.0000,  0.0000)
  12 N      1.243595    3.613645   20.000000    ( 0.0000,  0.0000,  0.0000)
  13 B      0.000161    4.328811   20.000000    ( 0.0000,  0.0000,  0.0000)
  14 N     -0.000446    5.772671   20.000000    ( 0.0000,  0.0000,  0.0000)
  15 B     -1.249967    6.495016   20.000000    ( 0.0000,  0.0000,  0.0000)
  16 N     -1.250597    7.938907   20.000000    ( 0.0000,  0.0000,  0.0000)
  17 B     -2.500894    8.660774   20.000000    ( 0.0000,  0.0000,  0.0000)
  18 N     -2.498275   10.096154   20.000000    ( 0.0000,  0.0000,  0.0000)
  19 B      4.999601    0.005371   20.000000    ( 0.0000,  0.0000,  0.0000)
  20 N      5.001979    1.443503   20.000000    ( 0.0000,  0.0000,  0.0000)
  21 B      3.746097    2.162656   20.000000    ( 0.0000,  0.0000,  0.0000)
  22 N      3.750820    3.609709   20.000000    ( 0.0000,  0.0000,  0.0000)
  23 B      2.504554    4.326843   20.000000    ( 0.0000,  0.0000,  0.0000)
  24 N      2.499046    5.774050   20.000000    ( 0.0000,  0.0000,  0.0000)
  25 B      1.250301    6.495020   20.000000    ( 0.0000,  0.0000,  0.0000)
  26 N      1.250494    7.939363   20.000000    ( 0.0000,  0.0000,  0.0000)
  27 B      0.000171    8.660318   20.000000    ( 0.0000,  0.0000,  0.0000)
  28 N      0.000341   10.103289   20.000000    ( 0.0000,  0.0000,  0.0000)
  29 B      7.500741    0.005343   20.000000    ( 0.0000,  0.0000,  0.0000)
  30 N      7.498848    1.443570   20.000000    ( 0.0000,  0.0000,  0.0000)
  31 B      6.250160    2.164604   20.000000    ( 0.0000,  0.0000,  0.0000)
  32 N      6.250474    3.608162   20.000000    ( 0.0000,  0.0000,  0.0000)
  33 B      4.999819    4.330235   20.000000    ( 0.0000,  0.0000,  0.0000)
  34 N      4.999307    5.772153   20.000000    ( 0.0000,  0.0000,  0.0000)
  35 B      3.755124    6.492893   20.000000    ( 0.0000,  0.0000,  0.0000)
  36 N      3.742287    7.941506   20.000000    ( 0.0000,  0.0000,  0.0000)
  37 B      2.501223    8.660778   20.000000    ( 0.0000,  0.0000,  0.0000)
  38 N      2.498257   10.096701   20.000000    ( 0.0000,  0.0000,  0.0000)
  39 B     10.024971    0.013117   20.000000    ( 0.0000,  0.0000,  0.0000)
  40 N      9.990234    1.449010   20.000000    ( 0.0000,  0.0000,  0.0000)
  41 B      8.754222    2.162630   20.000000    ( 0.0000,  0.0000,  0.0000)
  42 N      8.749252    3.609334   20.000000    ( 0.0000,  0.0000,  0.0000)
  43 B      7.500482    4.330223   20.000000    ( 0.0000,  0.0000,  0.0000)
  44 N      7.500876    5.771720   20.000000    ( 0.0000,  0.0000,  0.0000)
  45 B      6.250137    6.499779   20.000000    ( 0.0000,  0.0000,  0.0000)
  46 N      6.249735    7.927971   20.000000    ( 0.0000,  0.0000,  0.0000)
  47 B      5.023912    8.675117   20.000000    ( 0.0000,  0.0000,  0.0000)
  48 N      4.980150   10.093092   20.000000    ( 0.0000,  0.0000,  0.0000)

Unit cell:
           periodic     x           y           z      points  spacing
  1. axis:    yes   12.500000    0.000000    0.000000    56     0.1933
  2. axis:    yes   -6.250000   10.825318    0.000000    56     0.1933
  3. axis:    yes    0.000000    0.000000   40.000000   200     0.2000

  Lengths:  12.500000  12.500000  40.000000
  Angles:   90.000000  90.000000 120.000000

Effective grid spacing dv^(1/3) = 0.2051

     iter     time        total  log10-change:  magmom
                         energy   eigst   dens
iter:   1 15:13:27  -403.301015        c          +0.0000
iter:   2 15:13:36  -403.250322        c -2.27    +0.0000
iter:   3 15:13:45  -403.170390        c -2.35    -0.0000
iter:   4 15:13:54  -403.161476c       c -2.59    -0.0000
iter:   5 15:14:03  -403.159434c       c -2.65    -0.0000
iter:   6 15:14:13  -403.155724c       c -2.86    -0.0000
iter:   7 15:14:22  -403.154793c       c -2.92    -0.0000
iter:   8 15:14:31  -403.154317c       c -3.47    -0.0000
iter:   9 15:14:41  -403.154336c       c -3.58    +0.0000
iter:  10 15:14:50  -403.154411c       c -3.69    +0.0000
iter:  11 15:14:59  -403.154426c       c -4.02c   +0.0000

Converged after 11 iterations.

Dipole moment: (-18.876365, -4.200218, -0.000000) |e|*Ang

Total magnetic moment: (0.000000, 0.000000, 0.000000)
Local magnetic moments:
   0 N  ( 0.000000,  0.000000,  0.000000)
   1 B  ( 0.000000,  0.000000,  0.000000)
   2 N  ( 0.000000,  0.000000,  0.000000)
   3 B  ( 0.000000,  0.000000,  0.000000)
   4 N  ( 0.000000,  0.000000,  0.000000)
   5 B  ( 0.000000,  0.000000,  0.000000)
   6 N  ( 0.000000,  0.000000,  0.000000)
   7 B  ( 0.000000,  0.000000,  0.000000)
   8 N  ( 0.000000,  0.000000,  0.000000)
   9 B  ( 0.000000,  0.000000, -0.000000)
  10 N  ( 0.000000,  0.000000,  0.000000)
  11 B  ( 0.000000,  0.000000,  0.000000)
  12 N  ( 0.000000,  0.000000,  0.000000)
  13 B  ( 0.000000,  0.000000, -0.000000)
  14 N  ( 0.000000,  0.000000,  0.000000)
  15 B  ( 0.000000,  0.000000,  0.000000)
  16 N  ( 0.000000,  0.000000,  0.000000)
  17 B  ( 0.000000,  0.000000,  0.000000)
  18 N  ( 0.000000,  0.000000,  0.000000)
  19 B  ( 0.000000,  0.000000, -0.000000)
  20 N  ( 0.000000,  0.000000,  0.000000)
  21 B  ( 0.000000,  0.000000,  0.000000)
  22 N  ( 0.000000,  0.000000,  0.000000)
  23 B  ( 0.000000,  0.000000,  0.000000)
  24 N  ( 0.000000,  0.000000,  0.000000)
  25 B  ( 0.000000,  0.000000,  0.000000)
  26 N  ( 0.000000,  0.000000,  0.000000)
  27 B  ( 0.000000,  0.000000, -0.000000)
  28 N  ( 0.000000,  0.000000, -0.000000)
  29 B  ( 0.000000,  0.000000, -0.000000)
  30 N  ( 0.000000,  0.000000,  0.000000)
  31 B  ( 0.000000,  0.000000, -0.000000)
  32 N  ( 0.000000,  0.000000,  0.000000)
  33 B  ( 0.000000,  0.000000,  0.000000)
  34 N  ( 0.000000,  0.000000, -0.000000)
  35 B  ( 0.000000,  0.000000,  0.000000)
  36 N  ( 0.000000,  0.000000, -0.000000)
  37 B  ( 0.000000,  0.000000,  0.000000)
  38 N  ( 0.000000,  0.000000, -0.000000)
  39 B  ( 0.000000,  0.000000, -0.000000)
  40 N  ( 0.000000,  0.000000,  0.000000)
  41 B  ( 0.000000,  0.000000,  0.000000)
  42 N  ( 0.000000,  0.000000,  0.000000)
  43 B  ( 0.000000,  0.000000,  0.000000)
  44 N  ( 0.000000,  0.000000,  0.000000)
  45 B  ( 0.000000,  0.000000,  0.000000)
  46 N  ( 0.000000,  0.000000, -0.000000)
  47 B  ( 0.000000,  0.000000,  0.000000)
  48 N  ( 0.000000,  0.000000, -0.000000)

Energy contributions relative to reference atoms: (reference = -53110.787219)

Kinetic:       +373.295138
Potential:     -379.274858
External:        +0.000000
XC:            -413.109454
Entropy (-ST):   -0.116610
Local:          +15.993053
SIC:             +0.000000
--------------------------
Free energy:   -403.212730
Extrapolated:  -403.154426

Spin contamination: 0.000000 electrons
                   Up                     Down
 Band  Eigenvalues  Occupancy  Eigenvalues  Occupancy
    0    -22.83508    1.00000    -22.83508    1.00000
    1    -22.15811    1.00000    -22.15811    1.00000
    2    -22.15669    1.00000    -22.15669    1.00000
    3    -22.13957    1.00000    -22.13957    1.00000
    4    -22.10802    1.00000    -22.10802    1.00000
    5    -22.10631    1.00000    -22.10631    1.00000
    6    -21.70639    1.00000    -21.70639    1.00000
    7    -20.84570    1.00000    -20.84570    1.00000
    8    -20.84561    1.00000    -20.84561    1.00000
    9    -20.78505    1.00000    -20.78505    1.00000
   10    -20.71815    1.00000    -20.71815    1.00000
   11    -20.71810    1.00000    -20.71810    1.00000
   12    -20.55908    1.00000    -20.55908    1.00000
   13    -20.36019    1.00000    -20.36019    1.00000
   14    -20.31991    1.00000    -20.31991    1.00000
   15    -20.31792    1.00000    -20.31792    1.00000
   16    -20.13318    1.00000    -20.13318    1.00000
   17    -20.13206    1.00000    -20.13206    1.00000
   18    -19.78661    1.00000    -19.78661    1.00000
   19    -19.49248    1.00000    -19.49248    1.00000
   20    -19.48095    1.00000    -19.48095    1.00000
   21    -19.48039    1.00000    -19.48039    1.00000
   22    -19.39689    1.00000    -19.39689    1.00000
   23    -19.06613    1.00000    -19.06613    1.00000
   24    -19.06494    1.00000    -19.06494    1.00000
   25    -13.66314    1.00000    -13.66314    1.00000
   26    -13.66257    1.00000    -13.66257    1.00000
   27    -13.64790    1.00000    -13.64790    1.00000
   28    -13.55054    1.00000    -13.55054    1.00000
   29    -13.54973    1.00000    -13.54973    1.00000
   30    -13.50010    1.00000    -13.50010    1.00000
   31    -13.30731    1.00000    -13.30731    1.00000
   32    -13.25752    1.00000    -13.25752    1.00000
   33    -13.25699    1.00000    -13.25699    1.00000
   34    -13.10098    1.00000    -13.10098    1.00000
   35    -13.10073    1.00000    -13.10073    1.00000
   36    -12.51053    1.00000    -12.51053    1.00000
   37    -11.69336    1.00000    -11.69336    1.00000
   38    -11.67142    1.00000    -11.67142    1.00000
   39    -11.67125    1.00000    -11.67125    1.00000
   40    -11.57896    1.00000    -11.57896    1.00000
   41    -11.57851    1.00000    -11.57851    1.00000
   42    -11.53217    1.00000    -11.53217    1.00000
   43    -11.13068    1.00000    -11.13068    1.00000
   44    -11.12809    1.00000    -11.12809    1.00000
   45    -11.12652    1.00000    -11.12652    1.00000
   46    -10.87758    1.00000    -10.87758    1.00000
   47    -10.87687    1.00000    -10.87687    1.00000
   48    -10.41189    1.00000    -10.41189    1.00000
   49    -10.29970    1.00000    -10.29970    1.00000
   50    -10.00658    1.00000    -10.00658    1.00000
   51     -9.92765    1.00000     -9.92765    1.00000
   52     -9.92740    1.00000     -9.92740    1.00000
   53     -9.70959    1.00000     -9.70959    1.00000
   54     -9.70890    1.00000     -9.70890    1.00000
   55     -9.56474    1.00000     -9.56474    1.00000
   56     -9.36271    1.00000     -9.36271    1.00000
   57     -9.36150    1.00000     -9.36150    1.00000
   58     -9.35583    1.00000     -9.35583    1.00000
   59     -9.30546    1.00000     -9.30546    1.00000
   60     -9.30390    1.00000     -9.30390    1.00000
   61     -9.25201    1.00000     -9.25201    1.00000
   62     -9.24097    1.00000     -9.24097    1.00000
   63     -9.24083    1.00000     -9.24083    1.00000
   64     -9.21497    1.00000     -9.21497    1.00000
   65     -9.16992    1.00000     -9.16992    1.00000
   66     -9.16875    1.00000     -9.16875    1.00000
   67     -9.11670    1.00000     -9.11670    1.00000
   68     -9.11508    1.00000     -9.11508    1.00000
   69     -9.05501    1.00000     -9.05501    1.00000
   70     -8.84502    1.00000     -8.84502    1.00000
   71     -8.33663    1.00000     -8.33663    1.00000
   72     -8.33422    1.00000     -8.33422    1.00000
   73     -7.82923    1.00000     -7.82923    1.00000
   74     -7.74917    1.00000     -7.74917    1.00000
   75     -7.74847    1.00000     -7.74847    1.00000
   76     -7.64043    1.00000     -7.64043    1.00000
   77     -7.51521    1.00000     -7.51521    1.00000
   78     -7.51483    1.00000     -7.51483    1.00000
   79     -7.46229    1.00000     -7.46229    1.00000
   80     -7.43102    1.00000     -7.43102    1.00000
   81     -7.41445    1.00000     -7.41445    1.00000
   82     -7.41407    1.00000     -7.41407    1.00000
   83     -7.19432    1.00000     -7.19432    1.00000
   84     -6.83660    1.00000     -6.83660    1.00000
   85     -6.83385    1.00000     -6.83385    1.00000
   86     -6.79601    1.00000     -6.79601    1.00000
   87     -6.75857    1.00000     -6.75857    1.00000
   88     -6.75659    1.00000     -6.75659    1.00000
   89     -6.66211    1.00000     -6.66211    1.00000
   90     -6.66202    1.00000     -6.66202    1.00000
   91     -6.13243    1.00000     -6.13243    1.00000
   92     -5.47932    0.99999     -5.47932    0.99999
   93     -5.47891    0.99999     -5.47891    0.99999
   94     -5.46817    0.99999     -5.46817    0.99999
   95     -5.30069    0.99961     -5.30069    0.99961
   96     -5.30036    0.99961     -5.30036    0.99961
   97     -5.17845    0.99557     -5.17845    0.99557
   98     -4.85367    0.25342     -4.85367    0.25342
   99     -4.85324    0.25182     -4.85324    0.25182
  100     -0.26203    0.00000     -0.26203    0.00000
  101     -0.25918    0.00000     -0.25918    0.00000
  102     -0.20691    0.00000     -0.20691    0.00000
  103     -0.19498    0.00000     -0.19498    0.00000
  104     -0.19226    0.00000     -0.19226    0.00000
  105      0.31439    0.00000      0.31439    0.00000
  106      0.83933    0.00000      0.83933    0.00000
  107      0.84150    0.00000      0.84150    0.00000
  108      0.90265    0.00000      0.90265    0.00000
  109      0.97767    0.00000      0.97767    0.00000
  110      0.97976    0.00000      0.97976    0.00000
  111      1.63939    0.00000      1.63939    0.00000
  112      2.10575    0.00000      2.10575    0.00000
  113      2.22446    0.00000      2.22446    0.00000
  114      2.22542    0.00000      2.22542    0.00000
  115      2.29871    0.00000      2.29871    0.00000
  116      2.29998    0.00000      2.29998    0.00000
  117      3.23491    0.00000      3.23491    0.00000
  118      3.50931    0.00000      3.50931    0.00000
  119      3.53177    0.00000      3.53177    0.00000
  120      3.53446    0.00000      3.53446    0.00000
  121      3.61811    0.00000      3.61811    0.00000
  122      3.61839    0.00000      3.61839    0.00000

Fermi level: -4.90769

Gap: 0.325 eV
Transition (v -> c):
  (s=1, k=0, n=97, [0.00, 0.00, 0.00]) -> (s=0, k=0, n=98, [0.00, 0.00, 0.00])
No difference between direct/indirect transitions

Forces in eV/Ang:
  0 N    -0.01473    0.44476    0.00000
  1 B    -0.12098   -0.17137    0.00000
  2 N    -0.08448   -0.56155    0.00000
  3 B     0.06904   -0.08427    0.00000
  4 N    -0.11961   -0.08420    0.00000
  5 B    -0.00964    0.08837    0.00000
  6 N    -0.52065    0.20074    0.00000
  7 B    -0.19280    0.00939    0.00000
  8 N     0.40774   -0.23546    0.00000
  9 B    -0.10456    0.16224    0.00000
 10 N     0.00745    0.00525    0.00000
 11 B     0.07224   -0.17755    0.00000
 12 N     0.07217   -0.56960    0.00000
 13 B    -0.03237    0.04161    0.00000
 14 N     0.00009    0.04203    0.00000
 15 B     0.00524    0.00229    0.00000
 16 N     0.04801   -0.02766    0.00000
 17 B     0.04621   -0.02675    0.00000
 18 N    -0.43419    0.35061    0.00000
 19 B    -0.08140   -0.03592    0.00000
 20 N    -0.09678    0.19149    0.00000
 21 B     0.35693    0.19139    0.00000
 22 N     0.11707   -0.18609    0.00000
 23 B    -0.09093   -0.06918    0.00000
 24 N     0.11816   -0.06819    0.00000
 25 B    -0.03619    0.02081    0.00000
 26 N    -0.03630   -0.02100    0.00000
 27 B     0.00056   -0.00580    0.00000
 28 N     0.01315    0.14572    0.00000
 29 B     0.10744   -0.01773    0.00000
 30 N     0.10995    0.18817    0.00000
 31 B     0.02900    0.06549    0.00000
 32 N     0.00266   -0.00145    0.00000
 33 B     0.08403   -0.04860    0.00000
 34 N     0.21976   -0.00822    0.00000
 35 B     0.01439    0.11323    0.00000
 36 N     0.52944    0.22237    0.00000
 37 B    -0.05228    0.00712    0.00000
 38 N     0.44419    0.35405    0.00000
 39 B     0.08791    0.19044    0.00000
 40 N     0.00547   -0.00318    0.00000
 41 B    -0.34543    0.19939    0.00000
 42 N    -0.10789   -0.18918    0.00000
 43 B    -0.04226   -0.05797    0.00000
 44 N    -0.21413   -0.01180    0.00000
 45 B     0.01268   -0.40494    0.00000
 46 N    -0.00084   -0.00910    0.00000
 47 B     0.18989    0.02617    0.00000
 48 N    -0.39249   -0.20965    0.00000

System changes: positions 

Initializing position-dependent things.

Density initialized from wave functions
                                                            
                                                            
                                                            
                                                            
              N     N     N     N     N                     
             B N   B  N  B  N  B  N   B N                   
              B      B     B     B     B                    
                BN    BN     B     BN    BN                 
                   N     N     N     N     N                
                  B  N  B  N  B  N  B  N   B N              
                          B     B     B     B               
                                                            
                                                            
                                                            
                                                            

Positions:
   0 N     -0.001119    1.475194   20.000000    ( 0.0000,  0.0000,  0.0000)
   1 B     -1.250583    2.131029   20.000000    ( 0.0000,  0.0000,  0.0000)
   2 N     -1.245571    3.605427   20.000000    ( 0.0000,  0.0000,  0.0000)
   3 B     -2.503692    4.325154   20.000000    ( 0.0000,  0.0000,  0.0000)
   4 N     -2.501307    5.772075   20.000000    ( 0.0000,  0.0000,  0.0000)
   5 B     -3.755553    6.493933   20.000000    ( 0.0000,  0.0000,  0.0000)
   6 N     -3.749752    7.944120   20.000000    ( 0.0000,  0.0000,  0.0000)
   7 B     -5.029437    8.676864   20.000000    ( 0.0000,  0.0000,  0.0000)
   8 N     -4.972546   10.087775   20.000000    ( 0.0000,  0.0000,  0.0000)
   9 B      2.470899    0.017193   20.000000    ( 0.0000,  0.0000,  0.0000)
  10 N      2.510194    1.449614   20.000000    ( 0.0000,  0.0000,  0.0000)
  11 B      1.250082    2.130984   20.000000    ( 0.0000,  0.0000,  0.0000)
  12 N      1.243956    3.605568   20.000000    ( 0.0000,  0.0000,  0.0000)
  13 B     -0.000314    4.329293   20.000000    ( 0.0000,  0.0000,  0.0000)
  14 N     -0.000496    5.773216   20.000000    ( 0.0000,  0.0000,  0.0000)
  15 B     -1.249883    6.495031   20.000000    ( 0.0000,  0.0000,  0.0000)
  16 N     -1.249934    7.938525   20.000000    ( 0.0000,  0.0000,  0.0000)
  17 B     -2.500293    8.660426   20.000000    ( 0.0000,  0.0000,  0.0000)
  18 N     -2.504689   10.100634   20.000000    ( 0.0000,  0.0000,  0.0000)
  19 B      4.998315    0.005443   20.000000    ( 0.0000,  0.0000,  0.0000)
  20 N      5.000732    1.446434   20.000000    ( 0.0000,  0.0000,  0.0000)
  21 B      3.751084    2.165294   20.000000    ( 0.0000,  0.0000,  0.0000)
  22 N      3.752697    3.607021   20.000000    ( 0.0000,  0.0000,  0.0000)
  23 B      2.503694    4.325411   20.000000    ( 0.0000,  0.0000,  0.0000)
  24 N      2.500736    5.773075   20.000000    ( 0.0000,  0.0000,  0.0000)
  25 B      1.249784    6.495318   20.000000    ( 0.0000,  0.0000,  0.0000)
  26 N      1.249998    7.939135   20.000000    ( 0.0000,  0.0000,  0.0000)
  27 B      0.000199    8.660237   20.000000    ( 0.0000,  0.0000,  0.0000)
  28 N      0.000580   10.105470   20.000000    ( 0.0000,  0.0000,  0.0000)
  29 B      7.502463    0.005689   20.000000    ( 0.0000,  0.0000,  0.0000)
  30 N      7.500390    1.446459   20.000000    ( 0.0000,  0.0000,  0.0000)
  31 B      6.250621    2.165548   20.000000    ( 0.0000,  0.0000,  0.0000)
  32 N      6.250569    3.608108   20.000000    ( 0.0000,  0.0000,  0.0000)
  33 B      5.001078    4.329507   20.000000    ( 0.0000,  0.0000,  0.0000)
  34 N      5.002574    5.771872   20.000000    ( 0.0000,  0.0000,  0.0000)
  35 B      3.755934    6.494353   20.000000    ( 0.0000,  0.0000,  0.0000)
  36 N      3.749462    7.945231   20.000000    ( 0.0000,  0.0000,  0.0000)
  37 B      2.500567    8.660947   20.000000    ( 0.0000,  0.0000,  0.0000)
  38 N      2.504822   10.101296   20.000000    ( 0.0000,  0.0000,  0.0000)
  39 B     10.029185    0.017528   20.000000    ( 0.0000,  0.0000,  0.0000)
  40 N      9.989194    1.449611   20.000000    ( 0.0000,  0.0000,  0.0000)
  41 B      8.749446    2.165387   20.000000    ( 0.0000,  0.0000,  0.0000)
  42 N      8.747522    3.606556   20.000000    ( 0.0000,  0.0000,  0.0000)
  43 B      7.499893    4.329352   20.000000    ( 0.0000,  0.0000,  0.0000)
  44 N      7.497715    5.771335   20.000000    ( 0.0000,  0.0000,  0.0000)
  45 B      6.250345    6.494140   20.000000    ( 0.0000,  0.0000,  0.0000)
  46 N      6.249691    7.926612   20.000000    ( 0.0000,  0.0000,  0.0000)
  47 B      5.029557    8.677226   20.000000    ( 0.0000,  0.0000,  0.0000)
  48 N      4.971887   10.088686   20.000000    ( 0.0000,  0.0000,  0.0000)

Unit cell:
           periodic     x           y           z      points  spacing
  1. axis:    yes   12.500000    0.000000    0.000000    56     0.1933
  2. axis:    yes   -6.250000   10.825318    0.000000    56     0.1933
  3. axis:    yes    0.000000    0.000000   40.000000   200     0.2000

  Lengths:  12.500000  12.500000  40.000000
  Angles:   90.000000  90.000000 120.000000

Effective grid spacing dv^(1/3) = 0.2051

     iter     time        total  log10-change:  magmom
                         energy   eigst   dens
iter:   1 15:15:27  -403.201431        c          +0.0000
iter:   2 15:15:36  -403.198499        c -2.81    +0.0000
iter:   3 15:15:46  -403.193746c       c -2.89    -0.0000
iter:   4 15:15:55  -403.193385c       c -3.16    -0.0000
iter:   5 15:16:04  -403.193218c       c -3.21    -0.0000
iter:   6 15:16:13  -403.193055c       c -3.57    -0.0000
iter:   7 15:16:23  -403.193031c       c -3.61    -0.0000
iter:   8 15:16:32  -403.193028c       c -4.09c   -0.0000

Converged after 8 iterations.

Dipole moment: (-17.819816, -4.759491, -0.000000) |e|*Ang

Total magnetic moment: (0.000000, 0.000000, -0.000000)
Local magnetic moments:
   0 N  ( 0.000000,  0.000000, -0.000000)
   1 B  ( 0.000000,  0.000000, -0.000000)
   2 N  ( 0.000000,  0.000000, -0.000000)
   3 B  ( 0.000000,  0.000000, -0.000000)
   4 N  ( 0.000000,  0.000000, -0.000000)
   5 B  ( 0.000000,  0.000000, -0.000000)
   6 N  ( 0.000000,  0.000000, -0.000000)
   7 B  ( 0.000000,  0.000000, -0.000000)
   8 N  ( 0.000000,  0.000000, -0.000000)
   9 B  ( 0.000000,  0.000000,  0.000000)
  10 N  ( 0.000000,  0.000000, -0.000000)
  11 B  ( 0.000000,  0.000000, -0.000000)
  12 N  ( 0.000000,  0.000000, -0.000000)
  13 B  ( 0.000000,  0.000000,  0.000000)
  14 N  ( 0.000000,  0.000000, -0.000000)
  15 B  ( 0.000000,  0.000000, -0.000000)
  16 N  ( 0.000000,  0.000000, -0.000000)
  17 B  ( 0.000000,  0.000000, -0.000000)
  18 N  ( 0.000000,  0.000000,  0.000000)
  19 B  ( 0.000000,  0.000000,  0.000000)
  20 N  ( 0.000000,  0.000000, -0.000000)
  21 B  ( 0.000000,  0.000000,  0.000000)
  22 N  ( 0.000000,  0.000000, -0.000000)
  23 B  ( 0.000000,  0.000000, -0.000000)
  24 N  ( 0.000000,  0.000000, -0.000000)
  25 B  ( 0.000000,  0.000000, -0.000000)
  26 N  ( 0.000000,  0.000000,  0.000000)
  27 B  ( 0.000000,  0.000000,  0.000000)
  28 N  ( 0.000000,  0.000000,  0.000000)
  29 B  ( 0.000000,  0.000000,  0.000000)
  30 N  ( 0.000000,  0.000000,  0.000000)
  31 B  ( 0.000000,  0.000000,  0.000000)
  32 N  ( 0.000000,  0.000000, -0.000000)
  33 B  ( 0.000000,  0.000000, -0.000000)
  34 N  ( 0.000000,  0.000000,  0.000000)
  35 B  ( 0.000000,  0.000000,  0.000000)
  36 N  ( 0.000000,  0.000000,  0.000000)
  37 B  ( 0.000000,  0.000000, -0.000000)
  38 N  ( 0.000000,  0.000000,  0.000000)
  39 B  ( 0.000000,  0.000000,  0.000000)
  40 N  ( 0.000000,  0.000000, -0.000000)
  41 B  ( 0.000000,  0.000000, -0.000000)
  42 N  ( 0.000000,  0.000000, -0.000000)
  43 B  ( 0.000000,  0.000000, -0.000000)
  44 N  ( 0.000000,  0.000000,  0.000000)
  45 B  ( 0.000000,  0.000000, -0.000000)
  46 N  ( 0.000000,  0.000000,  0.000000)
  47 B  ( 0.000000,  0.000000,  0.000000)
  48 N  ( 0.000000,  0.000000,  0.000000)

Energy contributions relative to reference atoms: (reference = -53110.787219)

Kinetic:       +374.544124
Potential:     -380.288681
External:        +0.000000
XC:            -413.392628
Entropy (-ST):   -0.115329
Local:          +16.001820
SIC:             +0.000000
--------------------------
Free energy:   -403.250692
Extrapolated:  -403.193028

Spin contamination: 0.000000 electrons
                   Up                     Down
 Band  Eigenvalues  Occupancy  Eigenvalues  Occupancy
    0    -22.83429    1.00000    -22.83429    1.00000
    1    -22.15167    1.00000    -22.15167    1.00000
    2    -22.15071    1.00000    -22.15071    1.00000
    3    -22.15059    1.00000    -22.15059    1.00000
    4    -22.10284    1.00000    -22.10284    1.00000
    5    -22.10218    1.00000    -22.10218    1.00000
    6    -21.72104    1.00000    -21.72104    1.00000
    7    -20.84117    1.00000    -20.84117    1.00000
    8    -20.84099    1.00000    -20.84099    1.00000
    9    -20.76616    1.00000    -20.76616    1.00000
   10    -20.72837    1.00000    -20.72837    1.00000
   11    -20.72828    1.00000    -20.72828    1.00000
   12    -20.56607    1.00000    -20.56607    1.00000
   13    -20.35663    1.00000    -20.35663    1.00000
   14    -20.33008    1.00000    -20.33008    1.00000
   15    -20.32924    1.00000    -20.32924    1.00000
   16    -20.13282    1.00000    -20.13282    1.00000
   17    -20.13172    1.00000    -20.13172    1.00000
   18    -19.78510    1.00000    -19.78510    1.00000
   19    -19.48474    1.00000    -19.48474    1.00000
   20    -19.47815    1.00000    -19.47815    1.00000
   21    -19.47814    1.00000    -19.47814    1.00000
   22    -19.40512    1.00000    -19.40512    1.00000
   23    -19.08204    1.00000    -19.08204    1.00000
   24    -19.08087    1.00000    -19.08087    1.00000
   25    -13.65831    1.00000    -13.65831    1.00000
   26    -13.65807    1.00000    -13.65807    1.00000
   27    -13.65194    1.00000    -13.65194    1.00000
   28    -13.54852    1.00000    -13.54852    1.00000
   29    -13.54815    1.00000    -13.54815    1.00000
   30    -13.51118    1.00000    -13.51118    1.00000
   31    -13.31191    1.00000    -13.31191    1.00000
   32    -13.26614    1.00000    -13.26614    1.00000
   33    -13.26600    1.00000    -13.26600    1.00000
   34    -13.10121    1.00000    -13.10121    1.00000
   35    -13.10107    1.00000    -13.10107    1.00000
   36    -12.48956    1.00000    -12.48956    1.00000
   37    -11.68365    1.00000    -11.68365    1.00000
   38    -11.68311    1.00000    -11.68311    1.00000
   39    -11.67483    1.00000    -11.67483    1.00000
   40    -11.56935    1.00000    -11.56935    1.00000
   41    -11.56866    1.00000    -11.56866    1.00000
   42    -11.53454    1.00000    -11.53454    1.00000
   43    -11.15304    1.00000    -11.15304    1.00000
   44    -11.13472    1.00000    -11.13472    1.00000
   45    -11.13356    1.00000    -11.13356    1.00000
   46    -10.88355    1.00000    -10.88355    1.00000
   47    -10.88316    1.00000    -10.88316    1.00000
   48    -10.42471    1.00000    -10.42471    1.00000
   49    -10.29911    1.00000    -10.29911    1.00000
   50    -10.04861    1.00000    -10.04861    1.00000
   51     -9.92279    1.00000     -9.92279    1.00000
   52     -9.92191    1.00000     -9.92191    1.00000
   53     -9.70920    1.00000     -9.70920    1.00000
   54     -9.70896    1.00000     -9.70896    1.00000
   55     -9.55787    1.00000     -9.55787    1.00000
   56     -9.36669    1.00000     -9.36669    1.00000
   57     -9.35675    1.00000     -9.35675    1.00000
   58     -9.35640    1.00000     -9.35640    1.00000
   59     -9.30006    1.00000     -9.30006    1.00000
   60     -9.29956    1.00000     -9.29956    1.00000
   61     -9.27390    1.00000     -9.27390    1.00000
   62     -9.27274    1.00000     -9.27274    1.00000
   63     -9.23591    1.00000     -9.23591    1.00000
   64     -9.22724    1.00000     -9.22724    1.00000
   65     -9.15763    1.00000     -9.15763    1.00000
   66     -9.15735    1.00000     -9.15735    1.00000
   67     -9.11437    1.00000     -9.11437    1.00000
   68     -9.11350    1.00000     -9.11350    1.00000
   69     -9.06349    1.00000     -9.06349    1.00000
   70     -8.86025    1.00000     -8.86025    1.00000
   71     -8.34956    1.00000     -8.34956    1.00000
   72     -8.34798    1.00000     -8.34798    1.00000
   73     -7.80542    1.00000     -7.80542    1.00000
   74     -7.76179    1.00000     -7.76179    1.00000
   75     -7.76094    1.00000     -7.76094    1.00000
   76     -7.66177    1.00000     -7.66177    1.00000
   77     -7.50677    1.00000     -7.50677    1.00000
   78     -7.50648    1.00000     -7.50648    1.00000
   79     -7.44601    1.00000     -7.44601    1.00000
   80     -7.43129    1.00000     -7.43129    1.00000
   81     -7.43122    1.00000     -7.43122    1.00000
   82     -7.35661    1.00000     -7.35661    1.00000
   83     -7.20017    1.00000     -7.20017    1.00000
   84     -6.82971    1.00000     -6.82971    1.00000
   85     -6.82717    1.00000     -6.82717    1.00000
   86     -6.78240    1.00000     -6.78240    1.00000
   87     -6.76591    1.00000     -6.76591    1.00000
   88     -6.76465    1.00000     -6.76465    1.00000
   89     -6.66529    1.00000     -6.66529    1.00000
   90     -6.66513    1.00000     -6.66513    1.00000
   91     -6.13349    1.00000     -6.13349    1.00000
   92     -5.47898    0.99999     -5.47898    0.99999
   93     -5.47845    0.99999     -5.47845    0.99999
   94     -5.46185    0.99999     -5.46185    0.99999
   95     -5.30456    0.99976     -5.30456    0.99976
   96     -5.30408    0.99976     -5.30408    0.99976
   97     -5.17820    0.99705     -5.17820    0.99705
   98     -4.83287    0.25305     -4.83287    0.25305
   99     -4.83216    0.25040     -4.83216    0.25040
  100     -0.26197    0.00000     -0.26197    0.00000
  101     -0.25886    0.00000     -0.25886    0.00000
  102     -0.20313    0.00000     -0.20313    0.00000
  103     -0.20065    0.00000     -0.20065    0.00000
  104     -0.19820    0.00000     -0.19820    0.00000
  105      0.31530    0.00000      0.31530    0.00000
  106      0.84394    0.00000      0.84394    0.00000
  107      0.84440    0.00000      0.84440    0.00000
  108      0.89178    0.00000      0.89178    0.00000
  109      0.98491    0.00000      0.98491    0.00000
  110      0.98729    0.00000      0.98729    0.00000
  111      1.64354    0.00000      1.64354    0.00000
  112      2.10343    0.00000      2.10343    0.00000
  113      2.21533    0.00000      2.21533    0.00000
  114      2.21615    0.00000      2.21615    0.00000
  115      2.32340    0.00000      2.32340    0.00000
  116      2.32385    0.00000      2.32385    0.00000
  117      3.23357    0.00000      3.23357    0.00000
  118      3.49899    0.00000      3.49899    0.00000
  119      3.53225    0.00000      3.53225    0.00000
  120      3.53514    0.00000      3.53514    0.00000
  121      3.62577    0.00000      3.62577    0.00000
  122      3.62595    0.00000      3.62595    0.00000

Fermi level: -4.88699

Gap: 0.345 eV
Transition (v -> c):
  (s=0, k=0, n=97, [0.00, 0.00, 0.00]) -> (s=1, k=0, n=98, [0.00, 0.00, 0.00])
No difference between direct/indirect transitions

Forces in eV/Ang:
  0 N    -0.01090    0.12581    0.00000
  1 B    -0.14268    0.02604    0.00000
  2 N    -0.06311   -0.18719    0.00000
  3 B     0.03280   -0.17259    0.00000
  4 N    -0.04467   -0.04453    0.00000
  5 B    -0.12127    0.10285    0.00000
  6 N    -0.17215    0.04786    0.00000
  7 B    -0.04509   -0.13176    0.00000
  8 N     0.13920   -0.08035    0.00000
  9 B     0.09147    0.10483    0.00000
 10 N     0.11013    0.06292    0.00000
 11 B     0.12177    0.01496    0.00000
 12 N     0.01973   -0.17533    0.00000
 13 B    -0.01171   -0.20780    0.00000
 14 N    -0.00710   -0.01010    0.00000
 15 B    -0.06012   -0.03801    0.00000
 16 N     0.00110   -0.00063    0.00000
 17 B    -0.17310    0.09992    0.00000
 18 N    -0.12751    0.12515    0.00000
 19 B    -0.14973    0.05358    0.00000
 20 N     0.10018   -0.01319    0.00000
 21 B     0.08049    0.04181    0.00000
 22 N     0.04115    0.07586    0.00000
 23 B    -0.04116   -0.16630    0.00000
 24 N     0.04472   -0.02581    0.00000
 25 B     0.04898   -0.02830    0.00000
 26 N     0.00520    0.01120    0.00000
 27 B     0.00285    0.07102    0.00000
 28 N     0.01624    0.06101    0.00000
 29 B     0.16587    0.05787    0.00000
 30 N    -0.07273   -0.00997    0.00000
 31 B     0.00779    0.03679    0.00000
 32 N     0.01600   -0.00922    0.00000
 33 B     0.03786   -0.02185    0.00000
 34 N    -0.04512   -0.07358    0.00000
 35 B     0.12344    0.11877    0.00000
 36 N     0.16171    0.07060    0.00000
 37 B     0.17412    0.11402    0.00000
 38 N     0.13057    0.14824    0.00000
 39 B    -0.09386    0.11048    0.00000
 40 N    -0.11838    0.06837    0.00000
 41 B    -0.06959    0.04017    0.00000
 42 N    -0.02772    0.06798    0.00000
 43 B    -0.02796   -0.02514    0.00000
 44 N     0.06154   -0.08017    0.00000
 45 B     0.00403   -0.09065    0.00000
 46 N     0.00059   -0.12689    0.00000
 47 B     0.04793   -0.11300    0.00000
 48 N    -0.11435   -0.05342    0.00000

System changes: positions 

Initializing position-dependent things.

Density initialized from wave functions
                                                            
                                                            
                                                            
                                                            
              N     N     N     N     N                     
             B N   B  N  B  N  B  N   B N                   
              B      B     B     B     B                    
                BN    BN     B     BN    BN                 
                   N     N     N     N     N                
                  B  N  B  N  B  N  B  N   B N              
                          B     B     B     B               
                                                            
                                                            
                                                            
                                                            

Positions:
   0 N     -0.001441    1.480874   20.000000    ( 0.0000,  0.0000,  0.0000)
   1 B     -1.253726    2.128936   20.000000    ( 0.0000,  0.0000,  0.0000)
   2 N     -1.246761    3.600000   20.000000    ( 0.0000,  0.0000,  0.0000)
   3 B     -2.503086    4.321270   20.000000    ( 0.0000,  0.0000,  0.0000)
   4 N     -2.502597    5.770883   20.000000    ( 0.0000,  0.0000,  0.0000)
   5 B     -3.758266    6.496098   20.000000    ( 0.0000,  0.0000,  0.0000)
   6 N     -3.754570    7.945968   20.000000    ( 0.0000,  0.0000,  0.0000)
   7 B     -5.032682    8.675371   20.000000    ( 0.0000,  0.0000,  0.0000)
   8 N     -4.966984   10.084563   20.000000    ( 0.0000,  0.0000,  0.0000)
   9 B      2.470568    0.020749   20.000000    ( 0.0000,  0.0000,  0.0000)
  10 N      2.512972    1.451229   20.000000    ( 0.0000,  0.0000,  0.0000)
  11 B      1.252648    2.128657   20.000000    ( 0.0000,  0.0000,  0.0000)
  12 N      1.244174    3.600355   20.000000    ( 0.0000,  0.0000,  0.0000)
  13 B     -0.000653    4.325349   20.000000    ( 0.0000,  0.0000,  0.0000)
  14 N     -0.000664    5.773125   20.000000    ( 0.0000,  0.0000,  0.0000)
  15 B     -1.251022    6.494293   20.000000    ( 0.0000,  0.0000,  0.0000)
  16 N     -1.249770    7.938430   20.000000    ( 0.0000,  0.0000,  0.0000)
  17 B     -2.503520    8.662289   20.000000    ( 0.0000,  0.0000,  0.0000)
  18 N     -2.508699   10.103882   20.000000    ( 0.0000,  0.0000,  0.0000)
  19 B      4.995083    0.006709   20.000000    ( 0.0000,  0.0000,  0.0000)
  20 N      5.002432    1.446923   20.000000    ( 0.0000,  0.0000,  0.0000)
  21 B      3.753740    2.166670   20.000000    ( 0.0000,  0.0000,  0.0000)
  22 N      3.753997    3.607860   20.000000    ( 0.0000,  0.0000,  0.0000)
  23 B      2.502863    4.321708   20.000000    ( 0.0000,  0.0000,  0.0000)
  24 N      2.501987    5.772352   20.000000    ( 0.0000,  0.0000,  0.0000)
  25 B      1.250612    6.494839   20.000000    ( 0.0000,  0.0000,  0.0000)
  26 N      1.249993    7.939326   20.000000    ( 0.0000,  0.0000,  0.0000)
  27 B      0.000268    8.661590   20.000000    ( 0.0000,  0.0000,  0.0000)
  28 N      0.000968   10.107184   20.000000    ( 0.0000,  0.0000,  0.0000)
  29 B      7.506129    0.007106   20.000000    ( 0.0000,  0.0000,  0.0000)
  30 N      7.499327    1.447002   20.000000    ( 0.0000,  0.0000,  0.0000)
  31 B      6.250893    2.166478   20.000000    ( 0.0000,  0.0000,  0.0000)
  32 N      6.250921    3.607905   20.000000    ( 0.0000,  0.0000,  0.0000)
  33 B      5.002119    4.328906   20.000000    ( 0.0000,  0.0000,  0.0000)
  34 N      5.002498    5.770326   20.000000    ( 0.0000,  0.0000,  0.0000)
  35 B      3.758725    6.496924   20.000000    ( 0.0000,  0.0000,  0.0000)
  36 N      3.754086    7.947650   20.000000    ( 0.0000,  0.0000,  0.0000)
  37 B      2.503814    8.663212   20.000000    ( 0.0000,  0.0000,  0.0000)
  38 N      2.508928   10.105040   20.000000    ( 0.0000,  0.0000,  0.0000)
  39 B     10.029427    0.021294   20.000000    ( 0.0000,  0.0000,  0.0000)
  40 N      9.986256    1.451306   20.000000    ( 0.0000,  0.0000,  0.0000)
  41 B      8.747067    2.166760   20.000000    ( 0.0000,  0.0000,  0.0000)
  42 N      8.746522    3.607205   20.000000    ( 0.0000,  0.0000,  0.0000)
  43 B      7.499224    4.328650   20.000000    ( 0.0000,  0.0000,  0.0000)
  44 N      7.498143    5.769619   20.000000    ( 0.0000,  0.0000,  0.0000)
  45 B      6.250481    6.491152   20.000000    ( 0.0000,  0.0000,  0.0000)
  46 N      6.249681    7.923398   20.000000    ( 0.0000,  0.0000,  0.0000)
  47 B      5.032856    8.676167   20.000000    ( 0.0000,  0.0000,  0.0000)
  48 N      4.966807   10.086125   20.000000    ( 0.0000,  0.0000,  0.0000)

Unit cell:
           periodic     x           y           z      points  spacing
  1. axis:    yes   12.500000    0.000000    0.000000    56     0.1933
  2. axis:    yes   -6.250000   10.825318    0.000000    56     0.1933
  3. axis:    yes    0.000000    0.000000   40.000000   200     0.2000

  Lengths:  12.500000  12.500000  40.000000
  Angles:   90.000000  90.000000 120.000000

Effective grid spacing dv^(1/3) = 0.2051

     iter     time        total  log10-change:  magmom
                         energy   eigst   dens
iter:   1 15:17:03  -403.211668        c          -0.0000
iter:   2 15:17:12  -403.210420        c -2.99    -0.0000
iter:   3 15:17:22  -403.207939c       c -3.06    +0.0000
iter:   4 15:17:31  -403.207620c       c -3.32    +0.0000
iter:   5 15:17:40  -403.207592c       c -3.41    +0.0000
iter:   6 15:17:49  -403.207491c       c -3.65    +0.0000
iter:   7 15:17:58  -403.207526c       c -3.93    +0.0000
iter:   8 15:18:07  -403.207527c       c -4.21c   +0.0000

Converged after 8 iterations.

Dipole moment: (-16.624557, -5.387413, -0.000000) |e|*Ang

Total magnetic moment: (0.000000, 0.000000, 0.000000)
Local magnetic moments:
   0 N  ( 0.000000,  0.000000,  0.000000)
   1 B  ( 0.000000,  0.000000,  0.000000)
   2 N  ( 0.000000,  0.000000,  0.000000)
   3 B  ( 0.000000,  0.000000,  0.000000)
   4 N  ( 0.000000,  0.000000,  0.000000)
   5 B  ( 0.000000,  0.000000,  0.000000)
   6 N  ( 0.000000,  0.000000,  0.000000)
   7 B  ( 0.000000,  0.000000,  0.000000)
   8 N  ( 0.000000,  0.000000,  0.000000)
   9 B  ( 0.000000,  0.000000, -0.000000)
  10 N  ( 0.000000,  0.000000,  0.000000)
  11 B  ( 0.000000,  0.000000,  0.000000)
  12 N  ( 0.000000,  0.000000,  0.000000)
  13 B  ( 0.000000,  0.000000, -0.000000)
  14 N  ( 0.000000,  0.000000,  0.000000)
  15 B  ( 0.000000,  0.000000,  0.000000)
  16 N  ( 0.000000,  0.000000,  0.000000)
  17 B  ( 0.000000,  0.000000,  0.000000)
  18 N  ( 0.000000,  0.000000, -0.000000)
  19 B  ( 0.000000,  0.000000, -0.000000)
  20 N  ( 0.000000,  0.000000,  0.000000)
  21 B  ( 0.000000,  0.000000, -0.000000)
  22 N  ( 0.000000,  0.000000,  0.000000)
  23 B  ( 0.000000,  0.000000,  0.000000)
  24 N  ( 0.000000,  0.000000,  0.000000)
  25 B  ( 0.000000,  0.000000,  0.000000)
  26 N  ( 0.000000,  0.000000, -0.000000)
  27 B  ( 0.000000,  0.000000, -0.000000)
  28 N  ( 0.000000,  0.000000, -0.000000)
  29 B  ( 0.000000,  0.000000, -0.000000)
  30 N  ( 0.000000,  0.000000, -0.000000)
  31 B  ( 0.000000,  0.000000, -0.000000)
  32 N  ( 0.000000,  0.000000,  0.000000)
  33 B  ( 0.000000,  0.000000,  0.000000)
  34 N  ( 0.000000,  0.000000, -0.000000)
  35 B  ( 0.000000,  0.000000, -0.000000)
  36 N  ( 0.000000,  0.000000, -0.000000)
  37 B  ( 0.000000,  0.000000,  0.000000)
  38 N  ( 0.000000,  0.000000, -0.000000)
  39 B  ( 0.000000,  0.000000, -0.000000)
  40 N  ( 0.000000,  0.000000,  0.000000)
  41 B  ( 0.000000,  0.000000,  0.000000)
  42 N  ( 0.000000,  0.000000,  0.000000)
  43 B  ( 0.000000,  0.000000,  0.000000)
  44 N  ( 0.000000,  0.000000, -0.000000)
  45 B  ( 0.000000,  0.000000,  0.000000)
  46 N  ( 0.000000,  0.000000, -0.000000)
  47 B  ( 0.000000,  0.000000, -0.000000)
  48 N  ( 0.000000,  0.000000, -0.000000)

Energy contributions relative to reference atoms: (reference = -53110.787219)

Kinetic:       +375.232052
Potential:     -380.833059
External:        +0.000000
XC:            -413.550332
Entropy (-ST):   -0.114409
Local:          +16.001017
SIC:             +0.000000
--------------------------
Free energy:   -403.264731
Extrapolated:  -403.207527

Spin contamination: 0.000000 electrons
                   Up                     Down
 Band  Eigenvalues  Occupancy  Eigenvalues  Occupancy
    0    -22.83408    1.00000    -22.83408    1.00000
    1    -22.15529    1.00000    -22.15529    1.00000
    2    -22.15329    1.00000    -22.15329    1.00000
    3    -22.14438    1.00000    -22.14438    1.00000
    4    -22.10797    1.00000    -22.10797    1.00000
    5    -22.10615    1.00000    -22.10615    1.00000
    6    -21.73005    1.00000    -21.73005    1.00000
    7    -20.84428    1.00000    -20.84428    1.00000
    8    -20.84416    1.00000    -20.84416    1.00000
    9    -20.77709    1.00000    -20.77709    1.00000
   10    -20.72495    1.00000    -20.72495    1.00000
   11    -20.72483    1.00000    -20.72483    1.00000
   12    -20.55239    1.00000    -20.55239    1.00000
   13    -20.37324    1.00000    -20.37324    1.00000
   14    -20.33345    1.00000    -20.33345    1.00000
   15    -20.33194    1.00000    -20.33194    1.00000
   16    -20.13357    1.00000    -20.13357    1.00000
   17    -20.13158    1.00000    -20.13158    1.00000
   18    -19.77002    1.00000    -19.77002    1.00000
   19    -19.49499    1.00000    -19.49499    1.00000
   20    -19.47325    1.00000    -19.47325    1.00000
   21    -19.47278    1.00000    -19.47278    1.00000
   22    -19.41234    1.00000    -19.41234    1.00000
   23    -19.08109    1.00000    -19.08109    1.00000
   24    -19.07980    1.00000    -19.07980    1.00000
   25    -13.65777    1.00000    -13.65777    1.00000
   26    -13.65773    1.00000    -13.65773    1.00000
   27    -13.65170    1.00000    -13.65170    1.00000
   28    -13.56330    1.00000    -13.56330    1.00000
   29    -13.56313    1.00000    -13.56313    1.00000
   30    -13.49992    1.00000    -13.49992    1.00000
   31    -13.30878    1.00000    -13.30878    1.00000
   32    -13.26305    1.00000    -13.26305    1.00000
   33    -13.26289    1.00000    -13.26289    1.00000
   34    -13.10531    1.00000    -13.10531    1.00000
   35    -13.10507    1.00000    -13.10507    1.00000
   36    -12.48732    1.00000    -12.48732    1.00000
   37    -11.68780    1.00000    -11.68780    1.00000
   38    -11.68705    1.00000    -11.68705    1.00000
   39    -11.67570    1.00000    -11.67570    1.00000
   40    -11.56897    1.00000    -11.56897    1.00000
   41    -11.56685    1.00000    -11.56685    1.00000
   42    -11.54519    1.00000    -11.54519    1.00000
   43    -11.16012    1.00000    -11.16012    1.00000
   44    -11.14136    1.00000    -11.14136    1.00000
   45    -11.13938    1.00000    -11.13938    1.00000
   46    -10.88826    1.00000    -10.88826    1.00000
   47    -10.88705    1.00000    -10.88705    1.00000
   48    -10.41756    1.00000    -10.41756    1.00000
   49    -10.29867    1.00000    -10.29867    1.00000
   50    -10.06124    1.00000    -10.06124    1.00000
   51     -9.92526    1.00000     -9.92526    1.00000
   52     -9.92435    1.00000     -9.92435    1.00000
   53     -9.71064    1.00000     -9.71064    1.00000
   54     -9.71033    1.00000     -9.71033    1.00000
   55     -9.56047    1.00000     -9.56047    1.00000
   56     -9.36097    1.00000     -9.36097    1.00000
   57     -9.35828    1.00000     -9.35828    1.00000
   58     -9.35737    1.00000     -9.35737    1.00000
   59     -9.30394    1.00000     -9.30394    1.00000
   60     -9.30285    1.00000     -9.30285    1.00000
   61     -9.29634    1.00000     -9.29634    1.00000
   62     -9.29557    1.00000     -9.29557    1.00000
   63     -9.23912    1.00000     -9.23912    1.00000
   64     -9.23481    1.00000     -9.23481    1.00000
   65     -9.14829    1.00000     -9.14829    1.00000
   66     -9.14811    1.00000     -9.14811    1.00000
   67     -9.11392    1.00000     -9.11392    1.00000
   68     -9.11364    1.00000     -9.11364    1.00000
   69     -9.06319    1.00000     -9.06319    1.00000
   70     -8.86868    1.00000     -8.86868    1.00000
   71     -8.35078    1.00000     -8.35078    1.00000
   72     -8.34928    1.00000     -8.34928    1.00000
   73     -7.81360    1.00000     -7.81360    1.00000
   74     -7.76381    1.00000     -7.76381    1.00000
   75     -7.76127    1.00000     -7.76127    1.00000
   76     -7.65551    1.00000     -7.65551    1.00000
   77     -7.50561    1.00000     -7.50561    1.00000
   78     -7.50532    1.00000     -7.50532    1.00000
   79     -7.45526    1.00000     -7.45526    1.00000
   80     -7.43069    1.00000     -7.43069    1.00000
   81     -7.43048    1.00000     -7.43048    1.00000
   82     -7.30711    1.00000     -7.30711    1.00000
   83     -7.18973    1.00000     -7.18973    1.00000
   84     -6.82943    1.00000     -6.82943    1.00000
   85     -6.82749    1.00000     -6.82749    1.00000
   86     -6.78857    1.00000     -6.78857    1.00000
   87     -6.76981    1.00000     -6.76981    1.00000
   88     -6.76807    1.00000     -6.76807    1.00000
   89     -6.66793    1.00000     -6.66793    1.00000
   90     -6.66706    1.00000     -6.66706    1.00000
   91     -6.12171    1.00000     -6.12171    1.00000
   92     -5.47359    0.99999     -5.47359    0.99999
   93     -5.47254    0.99999     -5.47254    0.99999
   94     -5.47010    0.99999     -5.47010    0.99999
   95     -5.30563    0.99984     -5.30563    0.99984
   96     -5.30506    0.99984     -5.30506    0.99984
   97     -5.18309    0.99813     -5.18309    0.99813
   98     -4.81509    0.25328     -4.81509    0.25328
   99     -4.81394    0.24894     -4.81394    0.24894
  100     -0.26626    0.00000     -0.26626    0.00000
  101     -0.26225    0.00000     -0.26225    0.00000
  102     -0.20134    0.00000     -0.20134    0.00000
  103     -0.19826    0.00000     -0.19826    0.00000
  104     -0.19532    0.00000     -0.19532    0.00000
  105      0.30913    0.00000      0.30913    0.00000
  106      0.84722    0.00000      0.84722    0.00000
  107      0.84768    0.00000      0.84768    0.00000
  108      0.88913    0.00000      0.88913    0.00000
  109      0.98698    0.00000      0.98698    0.00000
  110      0.98881    0.00000      0.98881    0.00000
  111      1.64428    0.00000      1.64428    0.00000
  112      2.10849    0.00000      2.10849    0.00000
  113      2.20941    0.00000      2.20941    0.00000
  114      2.21015    0.00000      2.21015    0.00000
  115      2.33025    0.00000      2.33025    0.00000
  116      2.33079    0.00000      2.33079    0.00000
  117      3.23574    0.00000      3.23574    0.00000
  118      3.49797    0.00000      3.49797    0.00000
  119      3.53301    0.00000      3.53301    0.00000
  120      3.53658    0.00000      3.53658    0.00000
  121      3.62524    0.00000      3.62524    0.00000
  122      3.62579    0.00000      3.62579    0.00000

Fermi level: -4.86915

Gap: 0.368 eV
Transition (v -> c):
  (s=1, k=0, n=97, [0.00, 0.00, 0.00]) -> (s=0, k=0, n=98, [0.00, 0.00, 0.00])
No difference between direct/indirect transitions

Forces in eV/Ang:
  0 N    -0.01160   -0.02369    0.00000
  1 B    -0.06576    0.05031    0.00000
  2 N    -0.03222   -0.05619    0.00000
  3 B    -0.00305   -0.02942    0.00000
  4 N    -0.07129   -0.04934    0.00000
  5 B    -0.01248    0.00601    0.00000
  6 N    -0.05959   -0.00264    0.00000
  7 B     0.01970   -0.08716    0.00000
  8 N     0.00959   -0.00559    0.00000
  9 B     0.08532    0.02651    0.00000
 10 N     0.13178    0.07576    0.00000
 11 B     0.05313    0.04510    0.00000
 12 N     0.01678   -0.06048    0.00000
 13 B    -0.01709   -0.12219    0.00000
 14 N    -0.00421   -0.15724    0.00000
 15 B    -0.04852   -0.03063    0.00000
 16 N    -0.13064    0.07540    0.00000
 17 B    -0.10069    0.05813    0.00000
 18 N    -0.02754    0.05291    0.00000
 19 B    -0.01146    0.00781    0.00000
 20 N     0.03165    0.01155    0.00000
 21 B     0.07876    0.03840    0.00000
 22 N     0.02144    0.01624    0.00000
 23 B    -0.00687   -0.02645    0.00000
 24 N     0.07514   -0.04338    0.00000
 25 B     0.04189   -0.02418    0.00000
 26 N     0.13407    0.08225    0.00000
 27 B     0.00228    0.05736    0.00000
 28 N     0.00710    0.08642    0.00000
 29 B     0.02397    0.01736    0.00000
 30 N    -0.02205    0.01332    0.00000
 31 B     0.00911   -0.00295    0.00000
 32 N     0.00135   -0.00078    0.00000
 33 B     0.00730   -0.00422    0.00000
 34 N    -0.00335   -0.02671    0.00000
 35 B     0.01947    0.01917    0.00000
 36 N     0.06076    0.01567    0.00000
 37 B     0.09728    0.07590    0.00000
 38 N     0.03253    0.05600    0.00000
 39 B    -0.07644    0.03178    0.00000
 40 N    -0.12674    0.07319    0.00000
 41 B    -0.07207    0.04161    0.00000
 42 N    -0.02258    0.01243    0.00000
 43 B     0.00712   -0.00642    0.00000
 44 N     0.00582   -0.03322    0.00000
 45 B     0.00612   -0.08744    0.00000
 46 N     0.00029   -0.15203    0.00000
 47 B    -0.01250   -0.06857    0.00000
 48 N     0.01467    0.02181    0.00000

System changes: positions 

Initializing position-dependent things.

Density initialized from wave functions
                                                            
                                                            
                                                            
                                                            
              N     N     N     N     N                     
             B N   B  N  B  N  B  N   B N                   
              B      B     B     B     B                    
                BN    BN     B     BN    BN                 
                   N     N     N     N     N                
                  B  N  B  N  B  N  B  N   B N              
                          B     B     B     B               
                                                            
                                                            
                                                            
                                                            

Positions:
   0 N     -0.001870    1.483900   20.000000    ( 0.0000,  0.0000,  0.0000)
   1 B     -1.256575    2.128191   20.000000    ( 0.0000,  0.0000,  0.0000)
   2 N     -1.247940    3.595847   20.000000    ( 0.0000,  0.0000,  0.0000)
   3 B     -2.502921    4.318885   20.000000    ( 0.0000,  0.0000,  0.0000)
   4 N     -2.504871    5.769179   20.000000    ( 0.0000,  0.0000,  0.0000)
   5 B     -3.759739    6.497151   20.000000    ( 0.0000,  0.0000,  0.0000)
   6 N     -3.758430    7.947021   20.000000    ( 0.0000,  0.0000,  0.0000)
   7 B     -5.034470    8.673273   20.000000    ( 0.0000,  0.0000,  0.0000)
   8 N     -4.963418   10.082503   20.000000    ( 0.0000,  0.0000,  0.0000)
   9 B      2.471490    0.023344   20.000000    ( 0.0000,  0.0000,  0.0000)
  10 N      2.517239    1.453700   20.000000    ( 0.0000,  0.0000,  0.0000)
  11 B      1.254918    2.127695   20.000000    ( 0.0000,  0.0000,  0.0000)
  12 N      1.244577    3.596182   20.000000    ( 0.0000,  0.0000,  0.0000)
  13 B     -0.001215    4.321139   20.000000    ( 0.0000,  0.0000,  0.0000)
  14 N     -0.000834    5.769634   20.000000    ( 0.0000,  0.0000,  0.0000)
  15 B     -1.252532    6.493325   20.000000    ( 0.0000,  0.0000,  0.0000)
  16 N     -1.252553    7.940037   20.000000    ( 0.0000,  0.0000,  0.0000)
  17 B     -2.506955    8.664272   20.000000    ( 0.0000,  0.0000,  0.0000)
  18 N     -2.511541   10.106698   20.000000    ( 0.0000,  0.0000,  0.0000)
  19 B      4.993434    0.007458   20.000000    ( 0.0000,  0.0000,  0.0000)
  20 N      5.003684    1.447694   20.000000    ( 0.0000,  0.0000,  0.0000)
  21 B      3.757011    2.168312   20.000000    ( 0.0000,  0.0000,  0.0000)
  22 N      3.755196    3.608267   20.000000    ( 0.0000,  0.0000,  0.0000)
  23 B      2.502362    4.319484   20.000000    ( 0.0000,  0.0000,  0.0000)
  24 N      2.504316    5.771007   20.000000    ( 0.0000,  0.0000,  0.0000)
  25 B      1.251812    6.494146   20.000000    ( 0.0000,  0.0000,  0.0000)
  26 N      1.252931    7.941218   20.000000    ( 0.0000,  0.0000,  0.0000)
  27 B      0.000351    8.663383   20.000000    ( 0.0000,  0.0000,  0.0000)
  28 N      0.001307   10.110006   20.000000    ( 0.0000,  0.0000,  0.0000)
  29 B      7.508278    0.008156   20.000000    ( 0.0000,  0.0000,  0.0000)
  30 N      7.498580    1.447829   20.000000    ( 0.0000,  0.0000,  0.0000)
  31 B      6.251255    2.166869   20.000000    ( 0.0000,  0.0000,  0.0000)
  32 N      6.251104    3.607799   20.000000    ( 0.0000,  0.0000,  0.0000)
  33 B      5.002819    4.328502   20.000000    ( 0.0000,  0.0000,  0.0000)
[...]
  22 N      3.755286    3.608482   20.000000    ( 0.0000,  0.0000,  0.0000)
  23 B      2.502773    4.319385   20.000000    ( 0.0000,  0.0000,  0.0000)
  24 N      2.504617    5.770834   20.000000    ( 0.0000,  0.0000,  0.0000)
  25 B      1.252358    6.493831   20.000000    ( 0.0000,  0.0000,  0.0000)
  26 N      1.253962    7.941963   20.000000    ( 0.0000,  0.0000,  0.0000)
  27 B      0.000377    8.664040   20.000000    ( 0.0000,  0.0000,  0.0000)
  28 N      0.001340   10.110231   20.000000    ( 0.0000,  0.0000,  0.0000)
  29 B      7.508084    0.008666   20.000000    ( 0.0000,  0.0000,  0.0000)
  30 N      7.498383    1.447800   20.000000    ( 0.0000,  0.0000,  0.0000)
  31 B      6.251294    2.166873   20.000000    ( 0.0000,  0.0000,  0.0000)
  32 N      6.251173    3.607760   20.000000    ( 0.0000,  0.0000,  0.0000)
  33 B      5.002804    4.328511   20.000000    ( 0.0000,  0.0000,  0.0000)
  34 N      5.002603    5.768898   20.000000    ( 0.0000,  0.0000,  0.0000)
  35 B      3.760692    6.498163   20.000000    ( 0.0000,  0.0000,  0.0000)
  36 N      3.757830    7.949154   20.000000    ( 0.0000,  0.0000,  0.0000)
  37 B      2.508705    8.666843   20.000000    ( 0.0000,  0.0000,  0.0000)
  38 N      2.511427   10.108215   20.000000    ( 0.0000,  0.0000,  0.0000)
  39 B     10.028033    0.024616   20.000000    ( 0.0000,  0.0000,  0.0000)
  40 N      9.981305    1.454164   20.000000    ( 0.0000,  0.0000,  0.0000)
  41 B      8.742833    2.169205   20.000000    ( 0.0000,  0.0000,  0.0000)
  42 N      8.745358    3.607624   20.000000    ( 0.0000,  0.0000,  0.0000)
  43 B      7.499083    4.328106   20.000000    ( 0.0000,  0.0000,  0.0000)
  44 N      7.498355    5.767865   20.000000    ( 0.0000,  0.0000,  0.0000)
  45 B      6.250735    6.485944   20.000000    ( 0.0000,  0.0000,  0.0000)
  46 N      6.249760    7.917381   20.000000    ( 0.0000,  0.0000,  0.0000)
  47 B      5.034994    8.674061   20.000000    ( 0.0000,  0.0000,  0.0000)
  48 N      4.965118   10.085941   20.000000    ( 0.0000,  0.0000,  0.0000)

Unit cell:
           periodic     x           y           z      points  spacing
  1. axis:    yes   12.500000    0.000000    0.000000    56     0.1933
  2. axis:    yes   -6.250000   10.825318    0.000000    56     0.1933
  3. axis:    yes    0.000000    0.000000   40.000000   200     0.2000

  Lengths:  12.500000  12.500000  40.000000
  Angles:   90.000000  90.000000 120.000000

Effective grid spacing dv^(1/3) = 0.2051

     iter     time        total  log10-change:  magmom
                         energy   eigst   dens
iter:   1 15:19:48  -403.215230        c          -0.0000
iter:   2 15:19:58  -403.215110        c -3.42    -0.0000
iter:   3 15:20:07  -403.215025c       c -3.51    -0.0000
iter:   4 15:20:16  -403.214934c       c -3.59    +0.0000
iter:   5 15:20:26  -403.214905c       c -3.88    -0.0000
iter:   6 15:20:35  -403.214898c       c -4.06c   -0.0000

Converged after 6 iterations.

Dipole moment: (-15.647022, -5.874599, -0.000000) |e|*Ang

Total magnetic moment: (0.000000, 0.000000, -0.000000)
Local magnetic moments:
   0 N  ( 0.000000,  0.000000, -0.000000)
   1 B  ( 0.000000,  0.000000, -0.000000)
   2 N  ( 0.000000,  0.000000, -0.000000)
   3 B  ( 0.000000,  0.000000, -0.000000)
   4 N  ( 0.000000,  0.000000, -0.000000)
   5 B  ( 0.000000,  0.000000, -0.000000)
   6 N  ( 0.000000,  0.000000, -0.000000)
   7 B  ( 0.000000,  0.000000, -0.000000)
   8 N  ( 0.000000,  0.000000, -0.000000)
   9 B  ( 0.000000,  0.000000, -0.000000)
  10 N  ( 0.000000,  0.000000, -0.000000)
  11 B  ( 0.000000,  0.000000, -0.000000)
  12 N  ( 0.000000,  0.000000, -0.000000)
  13 B  ( 0.000000,  0.000000,  0.000000)
  14 N  ( 0.000000,  0.000000, -0.000000)
  15 B  ( 0.000000,  0.000000, -0.000000)
  16 N  ( 0.000000,  0.000000, -0.000000)
  17 B  ( 0.000000,  0.000000,  0.000000)
  18 N  ( 0.000000,  0.000000, -0.000000)
  19 B  ( 0.000000,  0.000000, -0.000000)
  20 N  ( 0.000000,  0.000000, -0.000000)
  21 B  ( 0.000000,  0.000000, -0.000000)
  22 N  ( 0.000000,  0.000000, -0.000000)
  23 B  ( 0.000000,  0.000000, -0.000000)
  24 N  ( 0.000000,  0.000000, -0.000000)
  25 B  ( 0.000000,  0.000000, -0.000000)
  26 N  ( 0.000000,  0.000000, -0.000000)
  27 B  ( 0.000000,  0.000000, -0.000000)
  28 N  ( 0.000000,  0.000000, -0.000000)
  29 B  ( 0.000000,  0.000000, -0.000000)
  30 N  ( 0.000000,  0.000000, -0.000000)
  31 B  ( 0.000000,  0.000000, -0.000000)
  32 N  ( 0.000000,  0.000000, -0.000000)
  33 B  ( 0.000000,  0.000000, -0.000000)
  34 N  ( 0.000000,  0.000000, -0.000000)
  35 B  ( 0.000000,  0.000000, -0.000000)
  36 N  ( 0.000000,  0.000000, -0.000000)
  37 B  ( 0.000000,  0.000000, -0.000000)
  38 N  ( 0.000000,  0.000000, -0.000000)
  39 B  ( 0.000000,  0.000000, -0.000000)
  40 N  ( 0.000000,  0.000000, -0.000000)
  41 B  ( 0.000000,  0.000000, -0.000000)
  42 N  ( 0.000000,  0.000000, -0.000000)
  43 B  ( 0.000000,  0.000000, -0.000000)
  44 N  ( 0.000000,  0.000000, -0.000000)
  45 B  ( 0.000000,  0.000000, -0.000000)
  46 N  ( 0.000000,  0.000000, -0.000000)
  47 B  ( 0.000000,  0.000000, -0.000000)
  48 N  ( 0.000000,  0.000000, -0.000000)

Energy contributions relative to reference atoms: (reference = -53110.787219)

Kinetic:       +375.394136
Potential:     -380.948680
External:        +0.000000
XC:            -413.590967
Entropy (-ST):   -0.113979
Local:          +15.987603
SIC:             +0.000000
--------------------------
Free energy:   -403.271887
Extrapolated:  -403.214898

Spin contamination: 0.000000 electrons
                   Up                     Down
 Band  Eigenvalues  Occupancy  Eigenvalues  Occupancy
    0    -22.83684    1.00000    -22.83684    1.00000
    1    -22.16623    1.00000    -22.16623    1.00000
    2    -22.16283    1.00000    -22.16283    1.00000
    3    -22.13460    1.00000    -22.13460    1.00000
    4    -22.11260    1.00000    -22.11260    1.00000
    5    -22.10929    1.00000    -22.10929    1.00000
    6    -21.72369    1.00000    -21.72369    1.00000
    7    -20.84958    1.00000    -20.84958    1.00000
    8    -20.84926    1.00000    -20.84926    1.00000
    9    -20.79241    1.00000    -20.79241    1.00000
   10    -20.72323    1.00000    -20.72323    1.00000
   11    -20.72306    1.00000    -20.72306    1.00000
   12    -20.53833    1.00000    -20.53833    1.00000
   13    -20.37772    1.00000    -20.37772    1.00000
   14    -20.33474    1.00000    -20.33474    1.00000
   15    -20.33310    1.00000    -20.33310    1.00000
   16    -20.13194    1.00000    -20.13194    1.00000
   17    -20.12938    1.00000    -20.12938    1.00000
   18    -19.75918    1.00000    -19.75918    1.00000
   19    -19.51043    1.00000    -19.51043    1.00000
   20    -19.47363    1.00000    -19.47363    1.00000
   21    -19.47294    1.00000    -19.47294    1.00000
   22    -19.40831    1.00000    -19.40831    1.00000
   23    -19.06613    1.00000    -19.06613    1.00000
   24    -19.06368    1.00000    -19.06368    1.00000
   25    -13.66194    1.00000    -13.66194    1.00000
   26    -13.66156    1.00000    -13.66156    1.00000
   27    -13.65093    1.00000    -13.65093    1.00000
   28    -13.57262    1.00000    -13.57262    1.00000
   29    -13.57239    1.00000    -13.57239    1.00000
   30    -13.49344    1.00000    -13.49344    1.00000
   31    -13.30758    1.00000    -13.30758    1.00000
   32    -13.25928    1.00000    -13.25928    1.00000
   33    -13.25926    1.00000    -13.25926    1.00000
   34    -13.10567    1.00000    -13.10567    1.00000
   35    -13.10555    1.00000    -13.10555    1.00000
   36    -12.49136    1.00000    -12.49136    1.00000
   37    -11.68812    1.00000    -11.68812    1.00000
   38    -11.68656    1.00000    -11.68656    1.00000
   39    -11.68294    1.00000    -11.68294    1.00000
   40    -11.56866    1.00000    -11.56866    1.00000
   41    -11.56557    1.00000    -11.56557    1.00000
   42    -11.55613    1.00000    -11.55613    1.00000
   43    -11.15029    1.00000    -11.15029    1.00000
   44    -11.14722    1.00000    -11.14722    1.00000
   45    -11.14529    1.00000    -11.14529    1.00000
   46    -10.89378    1.00000    -10.89378    1.00000
   47    -10.89228    1.00000    -10.89228    1.00000
   48    -10.40229    1.00000    -10.40229    1.00000
   49    -10.30031    1.00000    -10.30031    1.00000
   50    -10.06532    1.00000    -10.06532    1.00000
   51     -9.92929    1.00000     -9.92929    1.00000
   52     -9.92730    1.00000     -9.92730    1.00000
   53     -9.71263    1.00000     -9.71263    1.00000
   54     -9.71226    1.00000     -9.71226    1.00000
   55     -9.56355    1.00000     -9.56355    1.00000
   56     -9.36613    1.00000     -9.36613    1.00000
   57     -9.36436    1.00000     -9.36436    1.00000
   58     -9.35262    1.00000     -9.35262    1.00000
   59     -9.30716    1.00000     -9.30716    1.00000
   60     -9.30623    1.00000     -9.30623    1.00000
   61     -9.30616    1.00000     -9.30616    1.00000
   62     -9.30519    1.00000     -9.30519    1.00000
   63     -9.24536    1.00000     -9.24536    1.00000
   64     -9.23328    1.00000     -9.23328    1.00000
   65     -9.15559    1.00000     -9.15559    1.00000
   66     -9.15481    1.00000     -9.15481    1.00000
   67     -9.10645    1.00000     -9.10645    1.00000
   68     -9.10555    1.00000     -9.10555    1.00000
   69     -9.05539    1.00000     -9.05539    1.00000
   70     -8.86268    1.00000     -8.86268    1.00000
   71     -8.34827    1.00000     -8.34827    1.00000
   72     -8.34777    1.00000     -8.34777    1.00000
   73     -7.81709    1.00000     -7.81709    1.00000
   74     -7.76091    1.00000     -7.76091    1.00000
   75     -7.75762    1.00000     -7.75762    1.00000
   76     -7.66007    1.00000     -7.66007    1.00000
   77     -7.50769    1.00000     -7.50769    1.00000
   78     -7.50766    1.00000     -7.50766    1.00000
   79     -7.46607    1.00000     -7.46607    1.00000
   80     -7.42846    1.00000     -7.42846    1.00000
   81     -7.42816    1.00000     -7.42816    1.00000
   82     -7.28002    1.00000     -7.28002    1.00000
   83     -7.17827    1.00000     -7.17827    1.00000
   84     -6.82802    1.00000     -6.82802    1.00000
   85     -6.82672    1.00000     -6.82672    1.00000
   86     -6.79183    1.00000     -6.79183    1.00000
   87     -6.77035    1.00000     -6.77035    1.00000
   88     -6.76834    1.00000     -6.76834    1.00000
   89     -6.66727    1.00000     -6.66727    1.00000
   90     -6.66605    1.00000     -6.66605    1.00000
   91     -6.11638    1.00000     -6.11638    1.00000
   92     -5.48006    1.00000     -5.48006    1.00000
   93     -5.47373    1.00000     -5.47373    1.00000
   94     -5.47232    1.00000     -5.47232    1.00000
   95     -5.29845    0.99986     -5.29845    0.99986
   96     -5.29643    0.99986     -5.29643    0.99986
   97     -5.18232    0.99862     -5.18232    0.99862
   98     -4.79955    0.25488     -4.79955    0.25488
   99     -4.79739    0.24679     -4.79739    0.24679
  100     -0.26833    0.00000     -0.26833    0.00000
  101     -0.26353    0.00000     -0.26353    0.00000
  102     -0.20665    0.00000     -0.20665    0.00000
  103     -0.20168    0.00000     -0.20168    0.00000
  104     -0.19090    0.00000     -0.19090    0.00000
  105      0.30875    0.00000      0.30875    0.00000
  106      0.84478    0.00000      0.84478    0.00000
  107      0.84497    0.00000      0.84497    0.00000
  108      0.89019    0.00000      0.89019    0.00000
  109      0.98798    0.00000      0.98798    0.00000
  110      0.98993    0.00000      0.98993    0.00000
  111      1.63638    0.00000      1.63638    0.00000
  112      2.11020    0.00000      2.11020    0.00000
  113      2.21087    0.00000      2.21087    0.00000
  114      2.21164    0.00000      2.21164    0.00000
  115      2.32951    0.00000      2.32951    0.00000
  116      2.33097    0.00000      2.33097    0.00000
  117      3.23566    0.00000      3.23566    0.00000
  118      3.49458    0.00000      3.49458    0.00000
  119      3.53279    0.00000      3.53279    0.00000
  120      3.53707    0.00000      3.53707    0.00000
  121      3.62509    0.00000      3.62509    0.00000
  122      3.62651    0.00000      3.62651    0.00000

Fermi level: -4.85319

Gap: 0.383 eV
Transition (v -> c):
  (s=0, k=0, n=97, [0.00, 0.00, 0.00]) -> (s=1, k=0, n=98, [0.00, 0.00, 0.00])
No difference between direct/indirect transitions

Forces in eV/Ang:
  0 N    -0.00370   -0.06961    0.00000
  1 B     0.00037   -0.00619    0.00000
  2 N    -0.00990    0.01893    0.00000
  3 B    -0.01678    0.02011    0.00000
  4 N    -0.00500   -0.00313    0.00000
  5 B     0.01078   -0.02713    0.00000
  6 N     0.01689   -0.02265    0.00000
  7 B     0.00030   -0.00334    0.00000
  8 N    -0.04051    0.02337    0.00000
  9 B     0.00281    0.00130    0.00000
 10 N     0.03113    0.01275    0.00000
 11 B    -0.00361   -0.01891    0.00000
 12 N     0.00547    0.01306    0.00000
 13 B    -0.00090   -0.02629    0.00000
 14 N    -0.00335   -0.01410    0.00000
 15 B    -0.00073    0.00124    0.00000
 16 N    -0.01074    0.00623    0.00000
 17 B    -0.02031    0.01167    0.00000
 18 N     0.02800   -0.00325    0.00000
 19 B     0.02888    0.00421    0.00000
 20 N     0.02073    0.00719    0.00000
 21 B     0.02676    0.01237    0.00000
 22 N     0.01397    0.01072    0.00000
 23 B     0.01421    0.01415    0.00000
 24 N     0.00399   -0.00228    0.00000
 25 B     0.00050   -0.00029    0.00000
 26 N     0.01058    0.01001    0.00000
 27 B    -0.00144   -0.00001    0.00000
 28 N     0.00023    0.00592    0.00000
 29 B    -0.02570    0.00446    0.00000
 30 N    -0.01565    0.00706    0.00000
 31 B     0.00113    0.00144    0.00000
 32 N    -0.00090    0.00049    0.00000
 33 B    -0.00022    0.00012    0.00000
 34 N    -0.00233   -0.01748    0.00000
 35 B    -0.00510   -0.01931    0.00000
 36 N    -0.00875   -0.01126    0.00000
 37 B     0.02246    0.01395    0.00000
 38 N    -0.02138   -0.00099    0.00000
 39 B     0.00642    0.00255    0.00000
 40 N    -0.02723    0.01590    0.00000
 41 B    -0.01683    0.00973    0.00000
 42 N    -0.01398    0.01001    0.00000
 43 B    -0.00067   -0.00170    0.00000
 44 N     0.00413   -0.02159    0.00000
 45 B     0.00268   -0.02933    0.00000
 46 N     0.00467   -0.03349    0.00000
 47 B     0.01481    0.01319    0.00000
 48 N     0.05642    0.03669    0.00000

Writing to /Users/denniswayo/gpaw-DFT/emitter2chip/hBN_5x5_VB/hBN_5x5_VB_lcao.gpw (mode='all')

Timing:                                       incl.     excl.
--------------------------------------------------------------------
Basic WFS set positions:                      0.018     0.005   0.0% |
 Redistribute:                                0.013     0.013   0.0% |
Basis functions set positions:                0.807     0.807   0.1% |
Forces:                                     102.659     0.777   0.1% |
 LCAO forces:                               101.881     0.034   0.0% |
  Atomic Hamiltonian force:                   2.051     2.051   0.3% |
  Initial:                                    0.125     0.000   0.0% |
   Get density matrix:                        0.125     0.125   0.0% |
  Paw correction:                             2.050     2.050   0.3% |
  Potential:                                 92.028    92.028  13.0% |----|
  TCI derivative:                             5.592     5.592   0.8% |
  Wait for sum:                               0.000     0.000   0.0% |
LCAO WFS Initialize:                         37.168     0.163   0.0% |
 Density initialized from wave functions:    10.552     0.825   0.1% |
  Calculate density matrix:                   0.056     0.056   0.0% |
  Construct density:                          9.671     9.671   1.4% ||
  Symmetrize density:                         0.000     0.000   0.0% |
 Hamiltonian:                                26.453     0.090   0.0% |
  Atomic:                                     8.378     0.020   0.0% |
   XC Correction:                             8.357     8.357   1.2% |
  Calculate atomic Hamiltonians:              0.078     0.078   0.0% |
  Communicate:                                0.000     0.000   0.0% |
  Hartree integrate/restrict:                 0.367     0.367   0.1% |
  Initialize Hamiltonian:                     0.000     0.000   0.0% |
  Poisson:                                    3.537     0.349   0.0% |
   Communicate from 1D:                       0.335     0.335   0.0% |
   Communicate from 2D:                       0.195     0.195   0.0% |
   Communicate to 1D:                         0.282     0.282   0.0% |
   Communicate to 2D:                         0.801     0.801   0.1% |
   FFT 1D:                                    0.408     0.408   0.1% |
   FFT 2D:                                    1.166     1.166   0.2% |
  XC 3D grid:                                13.862    13.862   2.0% ||
  vbar:                                       0.141     0.141   0.0% |
P tci:                                        2.484     2.484   0.4% |
Redistribute:                                 0.001     0.001   0.0% |
SCF-cycle:                                  554.714     0.221   0.0% |
 Density:                                   123.748     0.001   0.0% |
  Atomic density matrices:                    0.242     0.242   0.0% |
  Mix:                                       10.692    10.692   1.5% ||
  Multipole moments:                          0.029     0.029   0.0% |
  Normalize:                                  0.031     0.031   0.0% |
  Pseudo density:                           112.753     0.168   0.0% |
   Calculate density matrix:                  0.614     0.614   0.1% |
   Construct density:                       111.967   111.967  15.9% |-----|
   Symmetrize density:                        0.004     0.004   0.0% |
 Hamiltonian:                               223.127     0.362   0.1% |
  Atomic:                                    69.777     0.169   0.0% |
   XC Correction:                            69.608    69.608   9.9% |---|
  Calculate atomic Hamiltonians:              0.814     0.814   0.1% |
  Communicate:                                0.000     0.000   0.0% |
  Hartree integrate/restrict:                 2.684     2.684   0.4% |
  Poisson:                                   29.016     2.351   0.3% |
   Communicate from 1D:                       2.063     2.063   0.3% |
   Communicate from 2D:                       1.699     1.699   0.2% |
   Communicate to 1D:                         2.392     2.392   0.3% |
   Communicate to 2D:                         6.656     6.656   0.9% |
   FFT 1D:                                    3.551     3.551   0.5% |
   FFT 2D:                                   10.305    10.305   1.5% ||
  XC 3D grid:                               119.101   119.101  16.9% |------|
  vbar:                                       1.372     1.372   0.2% |
 LCAO eigensolver:                          207.618     0.080   0.0% |
  Calculate projections:                      0.936     0.936   0.1% |
  DenseAtomicCorrection:                      4.357     4.357   0.6% |
  Distribute overlap matrix:                  0.002     0.002   0.0% |
  Orbital Layouts:                           25.059    25.059   3.6% ||
  Potential matrix:                         177.183   177.183  25.1% |---------|
ST tci:                                       0.822     0.822   0.1% |
Set symmetry:                                 0.000     0.000   0.0% |
TCI: Evaluate splines:                        0.139     0.139   0.0% |
mktci:                                        0.325     0.325   0.0% |
Other:                                        6.524     6.524   0.9% |
--------------------------------------------------------------------
Total:                                                705.660 100.0%

Memory usage: 1.89 GiB
Date: Mon Dec 15 15:20:53 2025
