
  ___ ___ ___ _ _ _  
 |   |   |_  | | | | 
 | | | | | . | | | | 
 |__ |  _|___|_____|  25.1.0
 |___|_|             

User:   denniswayo@Delas-MacBook-Pro.local
Date:   Mon Dec 15 15:47:35 2025
Arch:   x86_64
Pid:    37091
CWD:    /Users/denniswayo/gpaw-DFT/emitter2chip
Python: 3.9.22
gpaw:   /Users/denniswayo/miniforge-x86_64/envs/gpaw-tddft-legacy/lib/python3.9/site-packages/gpaw
_gpaw:  /Users/denniswayo/miniforge-x86_64/envs/gpaw-tddft-legacy/lib/python3.9/site-packages/
        _gpaw.cpython-39-darwin.so
ase:    /Users/denniswayo/miniforge-x86_64/envs/gpaw-tddft-legacy/lib/python3.9/site-packages/ase (version 3.25.0)
numpy:  /Users/denniswayo/miniforge-x86_64/envs/gpaw-tddft-legacy/lib/python3.9/site-packages/numpy (version 1.26.4)
scipy:  /Users/denniswayo/miniforge-x86_64/envs/gpaw-tddft-legacy/lib/python3.9/site-packages/scipy (version 1.13.1)
libxc:  5.1.7
units:  Angstrom and eV
cores: 1
OpenMP: False
OMP_NUM_THREADS: 1

Reading from /Users/denniswayo/gpaw-DFT/emitter2chip/hBN_5x5_VN/hBN_5x5_VN_lcao.gpw
Read dipole, energy, forces, free_energy, magmom, magmoms
Reading input parameters:
  basis: dzp
  kpts: [1 1 1]
  mode: lcao
  occupations: {fixmagmom: False,
                name: fermi-dirac,
                width: 0.05}
  spinpol: True
  symmetry: off
  xc: PBE

Initialize ...

species:
  B:
    name: Boron
    id: 6e91439235a05fd7549e31636e8f777c
    Z: 5.0
    valence: 3
    core: 2
    charge: 0.0
    file: /Users/denniswayo/miniforge-x86_64/envs/gpaw-tddft-legacy/lib/python3.9/site-packages/gpaw_data/setups/gpaw-setups-0.9.20000/B.PBE.gz
    compensation charges: {type: gauss,
                           rc: 0.20,
                           lmax: 2}
    cutoffs: {filter: 1.14,
              core: 1.38}
    projectors:
      #              energy  rcut
      - 2s(2.00)    -9.443   0.635
      - 2p(1.00)    -3.606   0.635
      -  s          17.768   0.635
      -  p          23.605   0.635
      -  d           0.000   0.635
  
    # LCAO basis set for B:
    #   Name: dzp
    #   File: /Users/denniswayo/miniforge-x86_64/envs/gpaw-tddft-legacy/lib/python3.9/site-packages/gpaw_data/setups/gpaw-setups-0.9.20000/B.dzp.basis.gz
    #   Number of radial functions: 5
    #   Number of spherical harmonics: 13
    #     l=0, rc=6.6719 Bohr: 2s-sz confined orbital
    #     l=1, rc=8.2188 Bohr: 2p-sz confined orbital
    #     l=0, rc=3.7500 Bohr: 2s-dz split-valence wave
    #     l=1, rc=4.6094 Bohr: 2p-dz split-valence wave
    #     l=2, rc=8.2188 Bohr: d-type Gaussian polarization
    #   Number of RI-basis functions 0

  N:
    name: Nitrogen
    id: f7500608b86eaa90eef8b1d9a670dc53
    Z: 7.0
    valence: 5
    core: 2
    charge: 0.0
    file: /Users/denniswayo/miniforge-x86_64/envs/gpaw-tddft-legacy/lib/python3.9/site-packages/gpaw_data/setups/gpaw-setups-0.9.20000/N.PBE.gz
    compensation charges: {type: gauss,
                           rc: 0.18,
                           lmax: 2}
    cutoffs: {filter: 1.11,
              core: 0.96}
    projectors:
      #              energy  rcut
      - 2s(2.00)   -18.583   0.603
      - 2p(3.00)    -7.089   0.529
      -  s           8.629   0.603
      -  p          20.123   0.529
      -  d           0.000   0.577
  
    # LCAO basis set for N:
    #   Name: dzp
    #   File: /Users/denniswayo/miniforge-x86_64/envs/gpaw-tddft-legacy/lib/python3.9/site-packages/gpaw_data/setups/gpaw-setups-0.9.20000/N.dzp.basis.gz
    #   Number of radial functions: 5
    #   Number of spherical harmonics: 13
    #     l=0, rc=4.8594 Bohr: 2s-sz confined orbital
    #     l=1, rc=6.0625 Bohr: 2p-sz confined orbital
    #     l=0, rc=2.6094 Bohr: 2s-dz split-valence wave
    #     l=1, rc=3.2656 Bohr: 2p-dz split-valence wave
    #     l=2, rc=6.0625 Bohr: d-type Gaussian polarization
    #   Number of RI-basis functions 0

Reference energy: -52298.555282  # eV

Spin-polarized calculation.
Magnetic moment: 0.000000

Convergence criteria:
 Maximum [total energy] change in last 3 cyles: 0.0005 eV / valence electron
 Maximum integral of absolute [dens]ity change: 0.0001 electrons / valence electron
 Maximum integral of absolute [eigenst]ate change: 4e-08 eV^2 / valence electron
 Maximum number of scf [iter]ations: 333
 (Square brackets indicate name in SCF output, whereas a 'c' in
 the SCF output indicates the quantity has converged.)

Symmetries present (total): 1

  ( 1  0  0)
  ( 0  1  0)
  ( 0  0  1)

1 k-point (Gamma)
1 k-point in the irreducible part of the Brillouin zone
       k-points in crystal coordinates                weights
   0:     0.00000000    0.00000000    0.00000000          1/1

Wave functions: LCAO
  Diagonalizer: Serial LAPACK
  Atomic Correction: dense with blas
  Data-type: float
 

Occupation numbers: Fermi-Dirac:
  width: 0.0500  # eV
 

Eigensolver
   LCAO using direct dense diagonalizer 

Densities:
  Coarse grid: 56*56*200 grid
  Fine grid: 112*112*400 grid
  Total Charge: 0.000000 

Density mixing:
  Method: difference
  Backend: pulay
  Linear mixing parameter: 0.05
  old densities: 5
  Damping of long wavelength oscillations: 50 

Hamiltonian:
  XC and Coulomb potentials evaluated on a 112*112*400 grid
  Using the PBE Exchange-Correlation functional
  Interpolation: tri-quintic (5. degree polynomial)
  Poisson solver: FastPoissonSolver using
    Stencil: 8*3+1=25 point O(h^6) finite-difference Laplacian
    FFT axes: [0, 1, 2]
    FST axes: []
 

XC parameters: PBE with 2 nearest neighbor stencil

Memory estimate:
  Process memory now: 1932.24 MiB
  Calculator: 489.69 MiB
    Density: 259.69 MiB
      Arrays: 167.48 MiB
      Localized functions: 25.21 MiB
      Mixer: 66.99 MiB
    Hamiltonian: 126.49 MiB
      Arrays: 124.41 MiB
      XC: 0.00 MiB
      Poisson: 0.00 MiB
      vbar: 2.07 MiB
    Wavefunctions: 103.52 MiB
      C [qnM]: 0.59 MiB
      S, T [2 x qmm]: 6.19 MiB
      P [aqMi]: 0.39 MiB
      BasisFunctions: 96.36 MiB
      Eigensolver: 0.00 MiB

Total number of cores used: 1

Number of atoms: 49
Number of atomic orbitals: 637
Number of bands in calculation: 121
Number of valence electrons: 195
Bands to converge: occupied

... initialized

Input parameters:
  convergence: {density: 0.005,
                energy: 0.005}
  h: 0.25
  mode: fd
  nbands: 107
  occupations: {fixmagmom: False,
                name: fermi-dirac,
                width: 0.1}

Initialize ...

species:
  B:
    name: Boron
    id: 6e91439235a05fd7549e31636e8f777c
    Z: 5.0
    valence: 3
    core: 2
    charge: 0.0
    file: /Users/denniswayo/miniforge-x86_64/envs/gpaw-tddft-legacy/lib/python3.9/site-packages/gpaw_data/setups/gpaw-setups-0.9.20000/B.PBE.gz
    compensation charges: {type: gauss,
                           rc: 0.20,
                           lmax: 2}
    cutoffs: {filter: 1.14,
              core: 1.38}
    projectors:
      #              energy  rcut
      - 2s(2.00)    -9.443   0.635
      - 2p(1.00)    -3.606   0.635
      -  s          17.768   0.635
      -  p          23.605   0.635
      -  d           0.000   0.635
  
    # LCAO basis set for B:
    #   Name: dzp
    #   File: /Users/denniswayo/miniforge-x86_64/envs/gpaw-tddft-legacy/lib/python3.9/site-packages/gpaw_data/setups/gpaw-setups-0.9.20000/B.dzp.basis.gz
    #   Number of radial functions: 5
    #   Number of spherical harmonics: 13
    #     l=0, rc=6.6719 Bohr: 2s-sz confined orbital
    #     l=1, rc=8.2188 Bohr: 2p-sz confined orbital
    #     l=0, rc=3.7500 Bohr: 2s-dz split-valence wave
    #     l=1, rc=4.6094 Bohr: 2p-dz split-valence wave
    #     l=2, rc=8.2188 Bohr: d-type Gaussian polarization
    #   Number of RI-basis functions 0

  N:
    name: Nitrogen
    id: f7500608b86eaa90eef8b1d9a670dc53
    Z: 7.0
    valence: 5
    core: 2
    charge: 0.0
    file: /Users/denniswayo/miniforge-x86_64/envs/gpaw-tddft-legacy/lib/python3.9/site-packages/gpaw_data/setups/gpaw-setups-0.9.20000/N.PBE.gz
    compensation charges: {type: gauss,
                           rc: 0.18,
                           lmax: 2}
    cutoffs: {filter: 1.11,
              core: 0.96}
    projectors:
      #              energy  rcut
      - 2s(2.00)   -18.583   0.603
      - 2p(3.00)    -7.089   0.529
      -  s           8.629   0.603
      -  p          20.123   0.529
      -  d           0.000   0.577
  
    # LCAO basis set for N:
    #   Name: dzp
    #   File: /Users/denniswayo/miniforge-x86_64/envs/gpaw-tddft-legacy/lib/python3.9/site-packages/gpaw_data/setups/gpaw-setups-0.9.20000/N.dzp.basis.gz
    #   Number of radial functions: 5
    #   Number of spherical harmonics: 13
    #     l=0, rc=4.8594 Bohr: 2s-sz confined orbital
    #     l=1, rc=6.0625 Bohr: 2p-sz confined orbital
    #     l=0, rc=2.6094 Bohr: 2s-dz split-valence wave
    #     l=1, rc=3.2656 Bohr: 2p-dz split-valence wave
    #     l=2, rc=6.0625 Bohr: d-type Gaussian polarization
    #   Number of RI-basis functions 0

Reference energy: -52298.555282  # eV

Spin-polarized calculation.
Magnetic moment: 0.000000

Convergence criteria:
 Maximum [total energy] change in last 3 cyles: 0.005 eV / valence electron
 Maximum integral of absolute [dens]ity change: 0.005 electrons / valence electron
 Maximum integral of absolute [eigenst]ate change: 4e-08 eV^2 / valence electron
 Maximum number of scf [iter]ations: 333
 (Square brackets indicate name in SCF output, whereas a 'c' in
 the SCF output indicates the quantity has converged.)

Symmetries present (total): 1

  ( 1  0  0)
  ( 0  1  0)
  ( 0  0  1)

1 k-point (Gamma)
1 k-point in the irreducible part of the Brillouin zone
       k-points in crystal coordinates                weights
   0:     0.00000000    0.00000000    0.00000000          1/1

Wave functions: Uniform real-space grid
  Kinetic energy operator: 8*3+1=25 point O(h^6) finite-difference Laplacian
  ScaLapack parameters: grid=1x1, blocksize=None
  Wavefunction extrapolation:
    Improved wavefunction reuse through dual PAW basis 

Occupation numbers: Fermi-Dirac:
  width: 0.1000  # eV
 

Eigensolver
   Davidson(niter=2) 

Densities:
  Coarse grid: 44*44*160 grid
  Fine grid: 88*88*320 grid
  Total Charge: 0.000000 

Density mixing:
  Method: difference
  Backend: pulay
  Linear mixing parameter: 0.05
  old densities: 5
  Damping of long wavelength oscillations: 50 

Hamiltonian:
  XC and Coulomb potentials evaluated on a 88*88*320 grid
  Using the PBE Exchange-Correlation functional
  Interpolation: tri-quintic (5. degree polynomial)
  Poisson solver: FastPoissonSolver using
    Stencil: 8*3+1=25 point O(h^6) finite-difference Laplacian
    FFT axes: [0, 1, 2]
    FST axes: []
 

XC parameters: PBE with 2 nearest neighbor stencil

Memory estimate:
  Process memory now: 1932.24 MiB
  Calculator: 964.73 MiB
    Density: 128.25 MiB
      Arrays: 82.71 MiB
      Localized functions: 12.45 MiB
      Mixer: 33.09 MiB
    Hamiltonian: 62.47 MiB
      Arrays: 61.45 MiB
      XC: 0.00 MiB
      Poisson: 0.00 MiB
      vbar: 1.02 MiB
    Wavefunctions: 774.01 MiB
      Arrays psit_nG: 505.74 MiB
      Eigensolver: 265.56 MiB
      Projections: 1.04 MiB
      Projectors: 1.66 MiB

Total number of cores used: 1

Number of atoms: 49
Number of atomic orbitals: 637
Number of bands in calculation: 107
Number of valence electrons: 195
Bands to converge: occupied

... initialized

Initializing position-dependent things.

Density initialized from atomic densities
Creating initial wave functions:
  107 bands from LCAO basis set

                                                            
                                                            
                                                            
                                                            
              N     N     N     N     N                     
             B N   B  N  B  N  B  N  B  N                   
              B      B     B     B     B                    
                 N    BN     N     BN    BN                 
                B  N     N  B  N     N     N                
                  B     B N   B  N  B  N   B N              
                    B     B     B     B     B               
                                                            
                                                            
                                                            
                                                            

Positions:
   0 B     -0.001165    0.149366   20.000000    ( 0.0000,  0.0000,  0.0000)
   1 B     -1.118920    2.088979   20.000000    ( 0.0000,  0.0000,  0.0000)
   2 N     -1.208333    3.552564   20.000000    ( 0.0000,  0.0000,  0.0000)
   3 B     -2.473832    4.292834   20.000000    ( 0.0000,  0.0000,  0.0000)
   4 N     -2.495757    5.751125   20.000000    ( 0.0000,  0.0000,  0.0000)
   5 B     -3.749311    6.495367   20.000000    ( 0.0000,  0.0000,  0.0000)
   6 N     -3.765711    7.954808   20.000000    ( 0.0000,  0.0000,  0.0000)
   7 B     -5.016598    8.700039   20.000000    ( 0.0000,  0.0000,  0.0000)
   8 N     -5.028721   10.165354   20.000000    ( 0.0000,  0.0000,  0.0000)
   9 B      2.495747    0.001484   20.000000    ( 0.0000,  0.0000,  0.0000)
  10 N      2.427478    1.434848   20.000000    ( 0.0000,  0.0000,  0.0000)
  11 B      1.117330    2.089401   20.000000    ( 0.0000,  0.0000,  0.0000)
  12 N      1.204512    3.553403   20.000000    ( 0.0000,  0.0000,  0.0000)
  13 B     -0.001669    4.328365   20.000000    ( 0.0000,  0.0000,  0.0000)
  14 N     -0.001086    5.769543   20.000000    ( 0.0000,  0.0000,  0.0000)
  15 B     -1.252296    6.491698   20.000000    ( 0.0000,  0.0000,  0.0000)
  16 N     -1.254897    7.940041   20.000000    ( 0.0000,  0.0000,  0.0000)
  17 B     -2.505443    8.665108   20.000000    ( 0.0000,  0.0000,  0.0000)
  18 N     -2.504021   10.110893   20.000000    ( 0.0000,  0.0000,  0.0000)
  19 B      4.997479    0.005213   20.000000    ( 0.0000,  0.0000,  0.0000)
  20 N      4.981207    1.448367   20.000000    ( 0.0000,  0.0000,  0.0000)
  21 B      3.706620    2.155697   20.000000    ( 0.0000,  0.0000,  0.0000)
  22 N      3.735308    3.595623   20.000000    ( 0.0000,  0.0000,  0.0000)
  23 B      2.472669    4.293381   20.000000    ( 0.0000,  0.0000,  0.0000)
  24 N      2.494644    5.752420   20.000000    ( 0.0000,  0.0000,  0.0000)
  25 B      1.251434    6.492570   20.000000    ( 0.0000,  0.0000,  0.0000)
  26 N      1.255059    7.941472   20.000000    ( 0.0000,  0.0000,  0.0000)
  27 B      0.000322    8.664596   20.000000    ( 0.0000,  0.0000,  0.0000)
  28 N      0.001159   10.113578   20.000000    ( 0.0000,  0.0000,  0.0000)
  29 B      7.504155    0.005872   20.000000    ( 0.0000,  0.0000,  0.0000)
  30 N      7.519741    1.448435   20.000000    ( 0.0000,  0.0000,  0.0000)
  31 B      6.250895    2.162384   20.000000    ( 0.0000,  0.0000,  0.0000)
  32 N      6.251044    3.605975   20.000000    ( 0.0000,  0.0000,  0.0000)
  33 B      4.993636    4.323836   20.000000    ( 0.0000,  0.0000,  0.0000)
  34 N      5.001351    5.772206   20.000000    ( 0.0000,  0.0000,  0.0000)
  35 B      3.749648    6.496487   20.000000    ( 0.0000,  0.0000,  0.0000)
  36 N      3.764283    7.956473   20.000000    ( 0.0000,  0.0000,  0.0000)
  37 B      2.505491    8.666820   20.000000    ( 0.0000,  0.0000,  0.0000)
  38 N      2.504192   10.112174   20.000000    ( 0.0000,  0.0000,  0.0000)
  39 B     10.003214    0.002608   20.000000    ( 0.0000,  0.0000,  0.0000)
  40 N     10.069961    1.435120   20.000000    ( 0.0000,  0.0000,  0.0000)
  41 B      8.793486    2.155927   20.000000    ( 0.0000,  0.0000,  0.0000)
  42 N      8.764272    3.595039   20.000000    ( 0.0000,  0.0000,  0.0000)
  43 B      7.508012    4.323525   20.000000    ( 0.0000,  0.0000,  0.0000)
  44 N      7.499530    5.771261   20.000000    ( 0.0000,  0.0000,  0.0000)
  45 B      6.250701    6.503831   20.000000    ( 0.0000,  0.0000,  0.0000)
  46 N      6.248993    7.956668   20.000000    ( 0.0000,  0.0000,  0.0000)
  47 B      5.015567    8.700798   20.000000    ( 0.0000,  0.0000,  0.0000)
  48 N      5.025238   10.165726   20.000000    ( 0.0000,  0.0000,  0.0000)

Unit cell:
           periodic     x           y           z      points  spacing
  1. axis:    yes   12.500000    0.000000    0.000000    44     0.2460
  2. axis:    yes   -6.250000   10.825318    0.000000    44     0.2460
  3. axis:    yes    0.000000    0.000000   40.000000   160     0.2500

  Lengths:  12.500000  12.500000  40.000000
  Angles:   90.000000  90.000000 120.000000

Effective grid spacing dv^(1/3) = 0.2595

     iter     time        total  log10-change:  magmom
                         energy   eigst   dens
iter:   1 15:48:08  -452.725040                   +0.0000
iter:   2 15:48:29  -447.388704   -0.53  -0.74    -0.0000
iter:   3 15:48:50  -433.955844   +0.60  -0.77    -0.0000
iter:   4 15:49:11  -431.029556   -0.22  -1.13    -0.0000
iter:   5 15:49:32  -444.891621   +0.24  -1.14    -0.0000
iter:   6 15:49:53  -435.096268   -0.90  -0.92    -0.0000
iter:   7 15:50:13  -429.335967   +0.51  -1.03    -0.0000
iter:   8 15:50:34  -430.758897   -0.08  -1.33    -0.0000
iter:   9 15:50:55  -430.512070   -0.61  -1.24    -0.0000
iter:  10 15:51:16  -426.727789   -1.00  -1.21    -0.0000
iter:  11 15:51:37  -426.352007   -1.27  -1.43    -0.0000
iter:  12 15:51:58  -427.266575c  -1.86  -1.51    -0.0000
iter:  13 15:52:18  -426.324481c  -0.29  -1.42    -0.0000
iter:  14 15:52:39  -426.191431   -1.13  -1.68    -0.0000
iter:  15 15:53:00  -425.563068c  -1.31  -1.68    -0.0000
iter:  16 15:53:21  -425.670523c  -1.17  -2.08    -0.0000
iter:  17 15:53:42  -425.803252c  -1.31  -1.93    -0.0000
iter:  18 15:54:02  -425.911239c  -1.70  -1.77    -0.0000
iter:  19 15:54:23  -425.682190c  -2.45  -1.70    -0.0000
iter:  20 15:54:45  -425.557767c  -1.18  -1.83    -0.0000
iter:  21 15:55:05  -425.552537c  -2.10  -2.35c   -0.0000
iter:  22 15:55:26  -425.532858c  -2.18  -2.39c   -0.0000
iter:  23 15:55:48  -425.535404c  -2.70  -2.53c   -0.0000
iter:  24 15:56:09  -425.541390c  -2.20  -2.49c   -0.0000
iter:  25 15:56:29  -425.524604c  -2.65  -2.50c   -0.0000
iter:  26 15:56:50  -425.527682c  -2.80  -2.92c   -0.0000
iter:  27 15:57:11  -425.524889c  -3.36  -2.84c   -0.0000
iter:  28 15:57:33  -425.524744c  -4.53  -3.39c   -0.0000
iter:  29 15:57:54  -425.524697c  -5.41  -3.63c   -0.0000
iter:  30 15:58:15  -425.524647c  -5.44  -3.68c   -0.0000
iter:  31 15:58:36  -425.524683c  -5.40  -3.78c   -0.0000
iter:  32 15:58:57  -425.524677c  -5.92  -3.82c   -0.0000
iter:  33 15:59:17  -425.524651c  -6.00  -3.83c   -0.0000
iter:  34 15:59:38  -425.524641c  -5.49  -3.99c   -0.0000
iter:  35 15:59:59  -425.524642c  -6.12  -4.26c   -0.0000
iter:  36 16:00:20  -425.524644c  -6.50  -4.34c   -0.0000
iter:  37 16:00:41  -425.524643c  -6.38  -4.41c   -0.0000
iter:  38 16:01:03  -425.524643c  -7.22  -4.58c   -0.0000
iter:  39 16:01:25  -425.524643c  -7.30  -4.67c   -0.0000
iter:  40 16:01:45  -425.524643c  -6.98  -4.73c   -0.0000
iter:  41 16:02:06  -425.524643c  -7.11  -4.69c   -0.0000
iter:  42 16:02:26  -425.524643c  -7.94c -4.92c   -0.0000

Converged after 42 iterations.

Dipole moment: (-33.023177, -14.255974, -0.000000) |e|*Ang

Total magnetic moment: (0.000000, 0.000000, -0.000000)
Local magnetic moments:
   0 B  ( 0.000000,  0.000000, -0.000000)
   1 B  ( 0.000000,  0.000000, -0.000000)
   2 N  ( 0.000000,  0.000000, -0.000000)
   3 B  ( 0.000000,  0.000000, -0.000000)
   4 N  ( 0.000000,  0.000000,  0.000000)
   5 B  ( 0.000000,  0.000000,  0.000000)
   6 N  ( 0.000000,  0.000000,  0.000000)
   7 B  ( 0.000000,  0.000000, -0.000000)
   8 N  ( 0.000000,  0.000000,  0.000000)
   9 B  ( 0.000000,  0.000000, -0.000000)
  10 N  ( 0.000000,  0.000000, -0.000000)
  11 B  ( 0.000000,  0.000000, -0.000000)
  12 N  ( 0.000000,  0.000000, -0.000000)
  13 B  ( 0.000000,  0.000000, -0.000000)
  14 N  ( 0.000000,  0.000000,  0.000000)
  15 B  ( 0.000000,  0.000000, -0.000000)
  16 N  ( 0.000000,  0.000000,  0.000000)
  17 B  ( 0.000000,  0.000000, -0.000000)
  18 N  ( 0.000000,  0.000000, -0.000000)
  19 B  ( 0.000000,  0.000000, -0.000000)
  20 N  ( 0.000000,  0.000000, -0.000000)
  21 B  ( 0.000000,  0.000000, -0.000000)
  22 N  ( 0.000000,  0.000000, -0.000000)
  23 B  ( 0.000000,  0.000000, -0.000000)
  24 N  ( 0.000000,  0.000000, -0.000000)
  25 B  ( 0.000000,  0.000000, -0.000000)
  26 N  ( 0.000000,  0.000000, -0.000000)
  27 B  ( 0.000000,  0.000000, -0.000000)
  28 N  ( 0.000000,  0.000000,  0.000000)
  29 B  ( 0.000000,  0.000000, -0.000000)
  30 N  ( 0.000000,  0.000000, -0.000000)
  31 B  ( 0.000000,  0.000000, -0.000000)
  32 N  ( 0.000000,  0.000000,  0.000000)
  33 B  ( 0.000000,  0.000000, -0.000000)
  34 N  ( 0.000000,  0.000000,  0.000000)
  35 B  ( 0.000000,  0.000000,  0.000000)
  36 N  ( 0.000000,  0.000000,  0.000000)
  37 B  ( 0.000000,  0.000000, -0.000000)
  38 N  ( 0.000000,  0.000000, -0.000000)
  39 B  ( 0.000000,  0.000000, -0.000000)
  40 N  ( 0.000000,  0.000000, -0.000000)
  41 B  ( 0.000000,  0.000000, -0.000000)
  42 N  ( 0.000000,  0.000000, -0.000000)
  43 B  ( 0.000000,  0.000000,  0.000000)
  44 N  ( 0.000000,  0.000000,  0.000000)
  45 B  ( 0.000000,  0.000000, -0.000000)
  46 N  ( 0.000000,  0.000000, -0.000000)
  47 B  ( 0.000000,  0.000000, -0.000000)
  48 N  ( 0.000000,  0.000000, -0.000000)

Energy contributions relative to reference atoms: (reference = -52298.555282)

Kinetic:       +441.140410
Potential:     -487.582570
External:        +0.000000
XC:            -421.112946
Entropy (-ST):   -0.138630
Local:          +42.099778
SIC:             +0.000000
--------------------------
Free energy:   -425.593958
Extrapolated:  -425.524643

Spin contamination: 0.000000 electrons
                   Up                     Down
 Band  Eigenvalues  Occupancy  Eigenvalues  Occupancy
    0    -22.57279    1.00000    -22.57279    1.00000
    1    -21.87937    1.00000    -21.87937    1.00000
    2    -21.87011    1.00000    -21.87011    1.00000
    3    -21.86471    1.00000    -21.86471    1.00000
    4    -21.84165    1.00000    -21.84165    1.00000
    5    -21.82818    1.00000    -21.82818    1.00000
    6    -21.58068    1.00000    -21.58068    1.00000
    7    -20.56459    1.00000    -20.56459    1.00000
    8    -20.55956    1.00000    -20.55956    1.00000
    9    -20.49234    1.00000    -20.49234    1.00000
   10    -20.49048    1.00000    -20.49048    1.00000
   11    -20.44389    1.00000    -20.44389    1.00000
   12    -20.29126    1.00000    -20.29126    1.00000
   13    -20.05246    1.00000    -20.05246    1.00000
   14    -20.04905    1.00000    -20.04905    1.00000
   15    -20.04446    1.00000    -20.04446    1.00000
   16    -19.97337    1.00000    -19.97337    1.00000
   17    -19.96631    1.00000    -19.96631    1.00000
   18    -19.58709    1.00000    -19.58709    1.00000
   19    -19.17580    1.00000    -19.17580    1.00000
   20    -19.17216    1.00000    -19.17216    1.00000
   21    -19.14456    1.00000    -19.14456    1.00000
   22    -19.14188    1.00000    -19.14188    1.00000
   23    -19.03828    1.00000    -19.03828    1.00000
   24    -13.75541    1.00000    -13.75541    1.00000
   25    -13.57749    1.00000    -13.57749    1.00000
   26    -13.56248    1.00000    -13.56248    1.00000
   27    -13.56138    1.00000    -13.56138    1.00000
   28    -13.53472    1.00000    -13.53472    1.00000
   29    -13.47378    1.00000    -13.47378    1.00000
   30    -13.46278    1.00000    -13.46278    1.00000
   31    -13.20224    1.00000    -13.20224    1.00000
   32    -13.18999    1.00000    -13.18999    1.00000
   33    -13.18433    1.00000    -13.18433    1.00000
   34    -12.92992    1.00000    -12.92992    1.00000
   35    -12.92206    1.00000    -12.92206    1.00000
   36    -12.46232    1.00000    -12.46232    1.00000
   37    -11.61752    1.00000    -11.61752    1.00000
   38    -11.59139    1.00000    -11.59139    1.00000
   39    -11.58596    1.00000    -11.58596    1.00000
   40    -11.40325    1.00000    -11.40325    1.00000
   41    -11.39568    1.00000    -11.39568    1.00000
   42    -11.17807    1.00000    -11.17807    1.00000
   43    -11.16806    1.00000    -11.16806    1.00000
   44    -11.09202    1.00000    -11.09202    1.00000
   45    -11.05649    1.00000    -11.05649    1.00000
   46    -10.75722    1.00000    -10.75722    1.00000
   47    -10.74118    1.00000    -10.74118    1.00000
   48    -10.23073    1.00000    -10.23073    1.00000
   49    -10.06565    1.00000    -10.06565    1.00000
   50    -10.04887    1.00000    -10.04887    1.00000
   51     -9.92807    1.00000     -9.92807    1.00000
   52     -9.91049    1.00000     -9.91049    1.00000
   53     -9.80154    1.00000     -9.80154    1.00000
   54     -9.70318    1.00000     -9.70318    1.00000
   55     -9.68311    1.00000     -9.68311    1.00000
   56     -9.28190    1.00000     -9.28190    1.00000
   57     -9.26642    1.00000     -9.26642    1.00000
   58     -9.26263    1.00000     -9.26263    1.00000
   59     -9.24518    1.00000     -9.24518    1.00000
   60     -9.23863    1.00000     -9.23863    1.00000
   61     -9.20054    1.00000     -9.20054    1.00000
   62     -9.16459    1.00000     -9.16459    1.00000
   63     -9.14539    1.00000     -9.14539    1.00000
   64     -9.11934    1.00000     -9.11934    1.00000
   65     -9.09860    1.00000     -9.09860    1.00000
   66     -9.07912    1.00000     -9.07912    1.00000
   67     -9.06729    1.00000     -9.06729    1.00000
   68     -9.04611    1.00000     -9.04611    1.00000
   69     -9.01068    1.00000     -9.01068    1.00000
   70     -8.92884    1.00000     -8.92884    1.00000
   71     -8.22537    1.00000     -8.22537    1.00000
   72     -8.21331    1.00000     -8.21331    1.00000
   73     -7.78037    1.00000     -7.78037    1.00000
   74     -7.75439    1.00000     -7.75439    1.00000
   75     -7.74030    1.00000     -7.74030    1.00000
   76     -7.57366    1.00000     -7.57366    1.00000
   77     -7.45358    1.00000     -7.45358    1.00000
   78     -7.44904    1.00000     -7.44904    1.00000
   79     -7.43220    1.00000     -7.43220    1.00000
   80     -7.39281    1.00000     -7.39281    1.00000
   81     -7.39172    1.00000     -7.39172    1.00000
   82     -7.36295    1.00000     -7.36295    1.00000
   83     -7.14013    1.00000     -7.14013    1.00000
   84     -6.79548    1.00000     -6.79548    1.00000
   85     -6.74980    1.00000     -6.74980    1.00000
   86     -6.74370    1.00000     -6.74370    1.00000
   87     -6.74076    1.00000     -6.74076    1.00000
   88     -6.73796    1.00000     -6.73796    1.00000
   89     -6.64737    1.00000     -6.64737    1.00000
   90     -6.64301    1.00000     -6.64301    1.00000
   91     -6.12704    1.00000     -6.12704    1.00000
   92     -5.44497    1.00000     -5.44497    1.00000
   93     -5.44413    1.00000     -5.44413    1.00000
   94     -5.40482    1.00000     -5.40482    1.00000
   95     -5.40249    1.00000     -5.40249    1.00000
   96     -5.36869    1.00000     -5.36869    1.00000
   97     -2.23334    0.50000     -2.23334    0.50000
   98     -0.38184    0.00000     -0.38184    0.00000
   99     -0.37373    0.00000     -0.37373    0.00000
  100     -0.36077    0.00000     -0.36077    0.00000
  101     -0.35760    0.00000     -0.35760    0.00000
  102     -0.27276    0.00000     -0.27276    0.00000
  103     -0.19117    0.00000     -0.19117    0.00000
  104     -0.18552    0.00000     -0.18552    0.00000
  105     -0.12197    0.00000     -0.12197    0.00000
  106      0.66969    0.00000      0.66969    0.00000

Fermi level: -2.23334

Gap: 3.135 eV
Transition (v -> c):
  (s=0, k=0, n=96, [0.00, 0.00, 0.00]) -> (s=1, k=0, n=97, [0.00, 0.00, 0.00])
No difference between direct/indirect transitions
Writing to /Users/denniswayo/gpaw-DFT/emitter2chip/hBN_5x5_VN/hBN_5x5_VN_fd.gpw (mode='all')

Timing:                              incl.     excl.
-----------------------------------------------------------
Hamiltonian:                         2.323     0.001   0.0% |
 Atomic:                             1.171     0.002   0.0% |
  XC Correction:                     1.169     1.169   0.1% |
 Calculate atomic Hamiltonians:      0.003     0.003   0.0% |
 Communicate:                        0.000     0.000   0.0% |
 Hartree integrate/restrict:         0.024     0.024   0.0% |
 Initialize Hamiltonian:             0.000     0.000   0.0% |
 Poisson:                            0.238     0.022   0.0% |
  Communicate from 1D:               0.028     0.028   0.0% |
  Communicate from 2D:               0.015     0.015   0.0% |
  Communicate to 1D:                 0.020     0.020   0.0% |
  Communicate to 2D:                 0.038     0.038   0.0% |
  FFT 1D:                            0.030     0.030   0.0% |
  FFT 2D:                            0.086     0.086   0.0% |
 XC 3D grid:                         0.881     0.881   0.1% |
 vbar:                               0.003     0.003   0.0% |
LCAO initialization:                 5.914     0.169   0.0% |
 LCAO eigensolver:                   1.887     0.000   0.0% |
  Calculate projections:             0.013     0.013   0.0% |
  DenseAtomicCorrection:             0.067     0.067   0.0% |
  Distribute overlap matrix:         0.000     0.000   0.0% |
  Orbital Layouts:                   0.396     0.396   0.0% |
  Potential matrix:                  1.411     1.411   0.2% |
 LCAO to grid:                       3.128     3.128   0.4% |
 Set positions (LCAO WFS):           0.730     0.117   0.0% |
  Basic WFS set positions:           0.001     0.001   0.0% |
  Basis functions set positions:     0.000     0.000   0.0% |
  P tci:                             0.463     0.463   0.1% |
  ST tci:                            0.135     0.135   0.0% |
  mktci:                             0.014     0.014   0.0% |
Redistribute:                        0.000     0.000   0.0% |
SCF-cycle:                         878.971     0.207   0.0% |
 Davidson:                         763.245   121.691  13.6% |----|
  Apply hamiltonian:                32.945    32.945   3.7% ||
  Subspace diag:                   151.178     0.019   0.0% |
   calc_h_matrix:                   75.442    36.448   4.1% |-|
    Apply hamiltonian:              38.994    38.994   4.4% |-|
   diagonalize:                      0.216     0.216   0.0% |
   rotate_psi:                      75.501    75.501   8.5% |--|
  calc. matrices:                  315.460   249.972  28.0% |----------|
   Apply hamiltonian:               65.488    65.488   7.3% |--|
  diagonalize:                       2.846     2.846   0.3% |
  rotate_psi:                      139.125   139.125  15.6% |-----|
 Density:                            8.240     0.001   0.0% |
  Atomic density matrices:           0.184     0.184   0.0% |
  Mix:                               5.064     5.064   0.6% |
  Multipole moments:                 0.023     0.023   0.0% |
  Pseudo density:                    2.969     2.965   0.3% |
   Symmetrize density:               0.003     0.003   0.0% |
 Hamiltonian:                      104.929     0.278   0.0% |
  Atomic:                           49.589     0.117   0.0% |
   XC Correction:                   49.472    49.472   5.5% |-|
  Calculate atomic Hamiltonians:     0.196     0.196   0.0% |
  Communicate:                       0.000     0.000   0.0% |
  Hartree integrate/restrict:        1.019     1.019   0.1% |
  Poisson:                          11.391     0.941   0.1% |
   Communicate from 1D:              1.096     1.096   0.1% |
   Communicate from 2D:              0.635     0.635   0.1% |
   Communicate to 1D:                0.776     0.776   0.1% |
   Communicate to 2D:                2.126     2.126   0.2% |
   FFT 1D:                           1.236     1.236   0.1% |
   FFT 2D:                           4.582     4.582   0.5% |
  XC 3D grid:                       41.677    41.677   4.7% |-|
  vbar:                              0.779     0.779   0.1% |
 Orthonormalize:                     2.350     0.001   0.0% |
  calc_s_matrix:                     0.541     0.541   0.1% |
  inverse-cholesky:                  0.004     0.004   0.0% |
  projections:                       0.436     0.436   0.0% |
  rotate_psi_s:                      1.368     1.368   0.2% |
Set symmetry:                        0.000     0.000   0.0% |
TCI: Evaluate splines:               0.143     0.143   0.0% |
Other:                               5.526     5.526   0.6% |
-----------------------------------------------------------
Total:                                       892.877 100.0%

Memory usage: 1.89 GiB
Date: Mon Dec 15 16:02:28 2025
