49
Lattice="12.5 0.0 0.0 -6.250000000000001 10.825317547305481 0.0 0.0 0.0 40.0" Properties=species:S:1:pos:R:3:spacegroup_kinds:I:1:magmoms:R:1:forces:R:3 spacegroup="P 1" unit_cell=conventional occupancy="_JSON {\"0\": {\"B\": 1.0}, \"1\": {\"B\": 1.0}, \"2\": {\"N\": 1.0}, \"3\": {\"B\": 1.0}, \"4\": {\"N\": 1.0}, \"5\": {\"B\": 1.0}, \"6\": {\"N\": 1.0}, \"7\": {\"B\": 1.0}, \"8\": {\"N\": 1.0}, \"9\": {\"B\": 1.0}, \"10\": {\"N\": 1.0}, \"11\": {\"B\": 1.0}, \"12\": {\"N\": 1.0}, \"13\": {\"B\": 1.0}, \"14\": {\"N\": 1.0}, \"15\": {\"B\": 1.0}, \"16\": {\"N\": 1.0}, \"17\": {\"B\": 1.0}, \"18\": {\"N\": 1.0}, \"19\": {\"B\": 1.0}, \"20\": {\"N\": 1.0}, \"21\": {\"B\": 1.0}, \"22\": {\"N\": 1.0}, \"23\": {\"B\": 1.0}, \"24\": {\"N\": 1.0}, \"25\": {\"B\": 1.0}, \"26\": {\"N\": 1.0}, \"27\": {\"B\": 1.0}, \"28\": {\"N\": 1.0}, \"29\": {\"B\": 1.0}, \"30\": {\"N\": 1.0}, \"31\": {\"B\": 1.0}, \"32\": {\"N\": 1.0}, \"33\": {\"B\": 1.0}, \"34\": {\"N\": 1.0}, \"35\": {\"B\": 1.0}, \"36\": {\"N\": 1.0}, \"37\": {\"B\": 1.0}, \"38\": {\"N\": 1.0}, \"39\": {\"B\": 1.0}, \"40\": {\"N\": 1.0}, \"41\": {\"B\": 1.0}, \"42\": {\"N\": 1.0}, \"43\": {\"B\": 1.0}, \"44\": {\"N\": 1.0}, \"45\": {\"B\": 1.0}, \"46\": {\"N\": 1.0}, \"47\": {\"B\": 1.0}, \"48\": {\"N\": 1.0}}" energy=-404.9350869437159 free_energy=-404.96974430274383 dipole="-31.13536014925511 -10.72571742110923 -1.1389918752156037e-10" magmom=-1.938443764720848e-13 pbc="T T T"
B       -0.00116502       0.14936642      20.00000000        0      -0.00000000      -0.00238156      -0.02288361       0.00000000
B       -1.11891998       2.08897950      20.00000000        1      -0.00000000       0.01621269       0.00437990       0.00000000
N       -1.20833265       3.55256382      20.00000000        2      -0.00000000       0.01278652      -0.00798396       0.00000000
B       -2.47383164       4.29283404      20.00000000        3       0.00000000      -0.00173667       0.02382158       0.00000000
N       -2.49575748       5.75112483      20.00000000        4       0.00000000      -0.00015875       0.01208653       0.00000000
B       -3.74931112       6.49536729      20.00000000        5      -0.00000000       0.00367687      -0.00019341       0.00000000
N       -3.76571053       7.95480833      20.00000000        6       0.00000000       0.00870300      -0.00511403       0.00000000
B       -5.01659792       8.70003909      20.00000000        7      -0.00000000       0.00879274      -0.02654530       0.00000000
N       -5.02872145      10.16535353      20.00000000        8      -0.00000000      -0.00540124       0.00779531       0.00000000
B        2.49574673       0.00148405      20.00000000        9      -0.00000000       0.00127430      -0.00228094       0.00000000
N        2.42747774       1.43484755      20.00000000       10      -0.00000000      -0.03767941      -0.00555056       0.00000000
B        1.11733032       2.08940098      20.00000000       11      -0.00000000      -0.01699120       0.00901510       0.00000000
N        1.20451184       3.55340309      20.00000000       12      -0.00000000      -0.01390282      -0.00849272       0.00000000
B       -0.00166872       4.32836533      20.00000000       13      -0.00000000       0.00229592       0.01763672       0.00000000
N       -0.00108617       5.76954263      20.00000000       14       0.00000000      -0.00484909      -0.00470670       0.00000000
B       -1.25229600       6.49169809      20.00000000       15      -0.00000000       0.00770342       0.00017656       0.00000000
N       -1.25489732       7.94004072      20.00000000       16       0.00000000      -0.00614909       0.00241806       0.00000000
B       -2.50544324       8.66510794      20.00000000       17      -0.00000000      -0.00017669       0.01514078       0.00000000
N       -2.50402075      10.11089281      20.00000000       18       0.00000000      -0.01904357       0.00659899       0.00000000
B        4.99747917       0.00521273      20.00000000       19      -0.00000000      -0.01188116      -0.01135188       0.00000000
N        4.98120700       1.44836695      20.00000000       20      -0.00000000       0.00675789      -0.01037397       0.00000000
B        3.70661950       2.15569667      20.00000000       21      -0.00000000       0.00327936      -0.00412255       0.00000000
N        3.73530772       3.59562337      20.00000000       22      -0.00000000      -0.01138874      -0.00334915       0.00000000
B        2.47266946       4.29338070      20.00000000       23      -0.00000000      -0.00268940       0.02313987       0.00000000
N        2.49464400       5.75241984      20.00000000       24      -0.00000000      -0.00845387       0.01361319       0.00000000
B        1.25143405       6.49257017      20.00000000       25      -0.00000000      -0.01415728      -0.00268644       0.00000000
N        1.25505924       7.94147192      20.00000000       26      -0.00000000      -0.00023756       0.00183132       0.00000000
B        0.00032213       8.66459584      20.00000000       27       0.00000000      -0.00415272      -0.00964667       0.00000000
N        0.00115947      10.11357832      20.00000000       28       0.00000000      -0.00185560      -0.00157080       0.00000000
B        7.50415528       0.00587213      20.00000000       29      -0.00000000      -0.00047103      -0.01228817       0.00000000
N        7.51974067       1.44843478      20.00000000       30       0.00000000      -0.01745078      -0.00881826       0.00000000
B        6.25089493       2.16238358      20.00000000       31      -0.00000000      -0.00752607       0.00672783       0.00000000
N        6.25104428       3.60597510      20.00000000       32       0.00000000      -0.00373661       0.00635654       0.00000000
B        4.99363572       4.32383574      20.00000000       33       0.00000000      -0.01149346       0.00077066       0.00000000
N        5.00135148       5.77220622      20.00000000       34      -0.00000000      -0.00285684      -0.00804557       0.00000000
B        3.74964817       6.49648676      20.00000000       35       0.00000000      -0.00904982      -0.00634733       0.00000000
N        3.76428269       7.95647343      20.00000000       36      -0.00000000      -0.01742176      -0.00749388       0.00000000
B        2.50549128       8.66682025      20.00000000       37       0.00000000      -0.00616307       0.00672677       0.00000000
N        2.50419184      10.11217392      20.00000000       38      -0.00000000       0.00824228       0.00513870       0.00000000
B       10.00321400       0.00260844      20.00000000       39      -0.00000000      -0.00651291      -0.00570901       0.00000000
N       10.06996112       1.43512031      20.00000000       40      -0.00000000       0.02788762      -0.00789445       0.00000000
B        8.79348647       2.15592695      20.00000000       41      -0.00000000      -0.01570577      -0.00259193       0.00000000
N        8.76427206       3.59503886      20.00000000       42      -0.00000000      -0.00112829      -0.00263766       0.00000000
B        7.50801231       4.32352502      20.00000000       43       0.00000000      -0.00201489       0.00321597       0.00000000
N        7.49953048       5.77126091      20.00000000       44      -0.00000000      -0.00656636      -0.00728525       0.00000000
B        6.25070137       6.50383125      20.00000000       45       0.00000000      -0.00518647      -0.02234947       0.00000000
N        6.24899292       7.95666769      20.00000000       46      -0.00000000      -0.00505344      -0.01582613       0.00000000
B        5.01556738       8.70079769      20.00000000       47       0.00000000      -0.01700326      -0.03104922       0.00000000
N        5.02523751      10.16572598      20.00000000       48      -0.00000000       0.00004392       0.01084493       0.00000000
