
  ___ ___ ___ _ _ _  
 |   |   |_  | | | | 
 | | | | | . | | | | 
 |__ |  _|___|_____|  25.1.0
 |___|_|             

User:   denniswayo@Delas-MacBook-Pro.local
Date:   Mon Dec 15 15:35:14 2025
Arch:   x86_64
Pid:    37091
CWD:    /Users/denniswayo/gpaw-DFT/emitter2chip
Python: 3.9.22
gpaw:   /Users/denniswayo/miniforge-x86_64/envs/gpaw-tddft-legacy/lib/python3.9/site-packages/gpaw
_gpaw:  /Users/denniswayo/miniforge-x86_64/envs/gpaw-tddft-legacy/lib/python3.9/site-packages/
        _gpaw.cpython-39-darwin.so
ase:    /Users/denniswayo/miniforge-x86_64/envs/gpaw-tddft-legacy/lib/python3.9/site-packages/ase (version 3.25.0)
numpy:  /Users/denniswayo/miniforge-x86_64/envs/gpaw-tddft-legacy/lib/python3.9/site-packages/numpy (version 1.26.4)
scipy:  /Users/denniswayo/miniforge-x86_64/envs/gpaw-tddft-legacy/lib/python3.9/site-packages/scipy (version 1.13.1)
libxc:  5.1.7
units:  Angstrom and eV
cores: 1
OpenMP: False
OMP_NUM_THREADS: 1

Input parameters:
  basis: dzp
  kpts: [1 1 1]
  mode: lcao
  occupations: {fixmagmom: False,
                name: fermi-dirac,
                width: 0.05}
  spinpol: True
  symmetry: off
  xc: PBE

System changes: positions, numbers, cell, pbc, initial_charges, initial_magmoms 

Initialize ...

species:
  B:
    name: Boron
    id: 6e91439235a05fd7549e31636e8f777c
    Z: 5.0
    valence: 3
    core: 2
    charge: 0.0
    file: /Users/denniswayo/miniforge-x86_64/envs/gpaw-tddft-legacy/lib/python3.9/site-packages/gpaw_data/setups/gpaw-setups-0.9.20000/B.PBE.gz
    compensation charges: {type: gauss,
                           rc: 0.20,
                           lmax: 2}
    cutoffs: {filter: 1.14,
              core: 1.38}
    projectors:
      #              energy  rcut
      - 2s(2.00)    -9.443   0.635
      - 2p(1.00)    -3.606   0.635
      -  s          17.768   0.635
      -  p          23.605   0.635
      -  d           0.000   0.635
  
    # LCAO basis set for B:
    #   Name: dzp
    #   File: /Users/denniswayo/miniforge-x86_64/envs/gpaw-tddft-legacy/lib/python3.9/site-packages/gpaw_data/setups/gpaw-setups-0.9.20000/B.dzp.basis.gz
    #   Number of radial functions: 5
    #   Number of spherical harmonics: 13
    #     l=0, rc=6.6719 Bohr: 2s-sz confined orbital
    #     l=1, rc=8.2188 Bohr: 2p-sz confined orbital
    #     l=0, rc=3.7500 Bohr: 2s-dz split-valence wave
    #     l=1, rc=4.6094 Bohr: 2p-dz split-valence wave
    #     l=2, rc=8.2188 Bohr: d-type Gaussian polarization
    #   Number of RI-basis functions 0

  N:
    name: Nitrogen
    id: f7500608b86eaa90eef8b1d9a670dc53
    Z: 7.0
    valence: 5
    core: 2
    charge: 0.0
    file: /Users/denniswayo/miniforge-x86_64/envs/gpaw-tddft-legacy/lib/python3.9/site-packages/gpaw_data/setups/gpaw-setups-0.9.20000/N.PBE.gz
    compensation charges: {type: gauss,
                           rc: 0.18,
                           lmax: 2}
    cutoffs: {filter: 1.11,
              core: 0.96}
    projectors:
      #              energy  rcut
      - 2s(2.00)   -18.583   0.603
      - 2p(3.00)    -7.089   0.529
      -  s           8.629   0.603
      -  p          20.123   0.529
      -  d           0.000   0.577
  
    # LCAO basis set for N:
    #   Name: dzp
    #   File: /Users/denniswayo/miniforge-x86_64/envs/gpaw-tddft-legacy/lib/python3.9/site-packages/gpaw_data/setups/gpaw-setups-0.9.20000/N.dzp.basis.gz
    #   Number of radial functions: 5
    #   Number of spherical harmonics: 13
    #     l=0, rc=4.8594 Bohr: 2s-sz confined orbital
    #     l=1, rc=6.0625 Bohr: 2p-sz confined orbital
    #     l=0, rc=2.6094 Bohr: 2s-dz split-valence wave
    #     l=1, rc=3.2656 Bohr: 2p-dz split-valence wave
    #     l=2, rc=6.0625 Bohr: d-type Gaussian polarization
    #   Number of RI-basis functions 0

Reference energy: -52298.555282  # eV

Spin-polarized calculation.
Magnetic moment: 0.000000

Convergence criteria:
 Maximum [total energy] change in last 3 cyles: 0.0005 eV / valence electron
 Maximum integral of absolute [dens]ity change: 0.0001 electrons / valence electron
 Maximum integral of absolute [eigenst]ate change: 4e-08 eV^2 / valence electron
 Maximum number of scf [iter]ations: 333
 (Square brackets indicate name in SCF output, whereas a 'c' in
 the SCF output indicates the quantity has converged.)

Symmetries present (total): 1

  ( 1  0  0)
  ( 0  1  0)
  ( 0  0  1)

1 k-point (Gamma)
1 k-point in the irreducible part of the Brillouin zone
       k-points in crystal coordinates                weights
   0:     0.00000000    0.00000000    0.00000000          1/1

Wave functions: LCAO
  Diagonalizer: Serial LAPACK
  Atomic Correction: dense with blas
  Data-type: float
 

Occupation numbers: Fermi-Dirac:
  width: 0.0500  # eV
 

Eigensolver
   LCAO using direct dense diagonalizer 

Densities:
  Coarse grid: 56*56*200 grid
  Fine grid: 112*112*400 grid
  Total Charge: 0.000000 

Density mixing:
  Method: difference
  Backend: pulay
  Linear mixing parameter: 0.05
  old densities: 5
  Damping of long wavelength oscillations: 50 

Hamiltonian:
  XC and Coulomb potentials evaluated on a 112*112*400 grid
  Using the PBE Exchange-Correlation functional
  Interpolation: tri-quintic (5. degree polynomial)
  Poisson solver: FastPoissonSolver using
    Stencil: 8*3+1=25 point O(h^6) finite-difference Laplacian
    FFT axes: [0, 1, 2]
    FST axes: []
 

XC parameters: PBE with 2 nearest neighbor stencil

Memory estimate:
  Process memory now: 1932.24 MiB
  Calculator: 489.69 MiB
    Density: 259.69 MiB
      Arrays: 167.48 MiB
      Localized functions: 25.21 MiB
      Mixer: 66.99 MiB
    Hamiltonian: 126.49 MiB
      Arrays: 124.41 MiB
      XC: 0.00 MiB
      Poisson: 0.00 MiB
      vbar: 2.07 MiB
    Wavefunctions: 103.52 MiB
      C [qnM]: 0.59 MiB
      S, T [2 x qmm]: 6.19 MiB
      P [aqMi]: 0.39 MiB
      BasisFunctions: 96.36 MiB
      Eigensolver: 0.00 MiB

Total number of cores used: 1

Number of atoms: 49
Number of atomic orbitals: 637
Number of bands in calculation: 121
Number of valence electrons: 195
Bands to converge: occupied

... initialized

Initializing position-dependent things.

Density initialized from atomic densities
                                                            
                                                            
                                                            
                                                            
              N     N     N     N     N                     
             B N   B  N  B  N  B  N  B  N                   
              B      B     B     B     B                    
                BN    BN     B     BN    BN                 
                   N     N     N     N      N               
                  B     B  N  B  N  B  N   B N              
                    B     B     B     B     B               
                                                            
                                                            
                                                            
                                                            

Positions:
   0 B      0.000000    0.000000   20.000000    ( 0.0000,  0.0000,  0.0000)
   1 B     -1.250000    2.165064   20.000000    ( 0.0000,  0.0000,  0.0000)
   2 N     -1.250000    3.608439   20.000000    ( 0.0000,  0.0000,  0.0000)
   3 B     -2.500000    4.330127   20.000000    ( 0.0000,  0.0000,  0.0000)
   4 N     -2.500000    5.773503   20.000000    ( 0.0000,  0.0000,  0.0000)
   5 B     -3.750000    6.495191   20.000000    ( 0.0000,  0.0000,  0.0000)
   6 N     -3.750000    7.938566   20.000000    ( 0.0000,  0.0000,  0.0000)
   7 B     -5.000000    8.660254   20.000000    ( 0.0000,  0.0000,  0.0000)
   8 N     -5.000000   10.103630   20.000000    ( 0.0000,  0.0000,  0.0000)
   9 B      2.500000    0.000000   20.000000    ( 0.0000,  0.0000,  0.0000)
  10 N      2.500000    1.443376   20.000000    ( 0.0000,  0.0000,  0.0000)
  11 B      1.250000    2.165064   20.000000    ( 0.0000,  0.0000,  0.0000)
  12 N      1.250000    3.608439   20.000000    ( 0.0000,  0.0000,  0.0000)
  13 B     -0.000000    4.330127   20.000000    ( 0.0000,  0.0000,  0.0000)
  14 N     -0.000000    5.773503   20.000000    ( 0.0000,  0.0000,  0.0000)
  15 B     -1.250000    6.495191   20.000000    ( 0.0000,  0.0000,  0.0000)
  16 N     -1.250000    7.938566   20.000000    ( 0.0000,  0.0000,  0.0000)
  17 B     -2.500000    8.660254   20.000000    ( 0.0000,  0.0000,  0.0000)
  18 N     -2.500000   10.103630   20.000000    ( 0.0000,  0.0000,  0.0000)
  19 B      5.000000    0.000000   20.000000    ( 0.0000,  0.0000,  0.0000)
  20 N      5.000000    1.443376   20.000000    ( 0.0000,  0.0000,  0.0000)
  21 B      3.750000    2.165064   20.000000    ( 0.0000,  0.0000,  0.0000)
  22 N      3.750000    3.608439   20.000000    ( 0.0000,  0.0000,  0.0000)
  23 B      2.500000    4.330127   20.000000    ( 0.0000,  0.0000,  0.0000)
  24 N      2.500000    5.773503   20.000000    ( 0.0000,  0.0000,  0.0000)
  25 B      1.250000    6.495191   20.000000    ( 0.0000,  0.0000,  0.0000)
  26 N      1.250000    7.938566   20.000000    ( 0.0000,  0.0000,  0.0000)
  27 B     -0.000000    8.660254   20.000000    ( 0.0000,  0.0000,  0.0000)
  28 N     -0.000000   10.103630   20.000000    ( 0.0000,  0.0000,  0.0000)
  29 B      7.500000    0.000000   20.000000    ( 0.0000,  0.0000,  0.0000)
  30 N      7.500000    1.443376   20.000000    ( 0.0000,  0.0000,  0.0000)
  31 B      6.250000    2.165064   20.000000    ( 0.0000,  0.0000,  0.0000)
  32 N      6.250000    3.608439   20.000000    ( 0.0000,  0.0000,  0.0000)
  33 B      5.000000    4.330127   20.000000    ( 0.0000,  0.0000,  0.0000)
  34 N      5.000000    5.773503   20.000000    ( 0.0000,  0.0000,  0.0000)
  35 B      3.750000    6.495191   20.000000    ( 0.0000,  0.0000,  0.0000)
  36 N      3.750000    7.938566   20.000000    ( 0.0000,  0.0000,  0.0000)
  37 B      2.500000    8.660254   20.000000    ( 0.0000,  0.0000,  0.0000)
  38 N      2.500000   10.103630   20.000000    ( 0.0000,  0.0000,  0.0000)
  39 B     10.000000    0.000000   20.000000    ( 0.0000,  0.0000,  0.0000)
  40 N     10.000000    1.443376   20.000000    ( 0.0000,  0.0000,  0.0000)
  41 B      8.750000    2.165064   20.000000    ( 0.0000,  0.0000,  0.0000)
  42 N      8.750000    3.608439   20.000000    ( 0.0000,  0.0000,  0.0000)
  43 B      7.500000    4.330127   20.000000    ( 0.0000,  0.0000,  0.0000)
  44 N      7.500000    5.773503   20.000000    ( 0.0000,  0.0000,  0.0000)
  45 B      6.250000    6.495191   20.000000    ( 0.0000,  0.0000,  0.0000)
  46 N      6.250000    7.938566   20.000000    ( 0.0000,  0.0000,  0.0000)
  47 B      5.000000    8.660254   20.000000    ( 0.0000,  0.0000,  0.0000)
  48 N      5.000000   10.103630   20.000000    ( 0.0000,  0.0000,  0.0000)

Unit cell:
           periodic     x           y           z      points  spacing
  1. axis:    yes   12.500000    0.000000    0.000000    56     0.1933
  2. axis:    yes   -6.250000   10.825318    0.000000    56     0.1933
  3. axis:    yes    0.000000    0.000000   40.000000   200     0.2000

  Lengths:  12.500000  12.500000  40.000000
  Angles:   90.000000  90.000000 120.000000

Effective grid spacing dv^(1/3) = 0.2051

     iter     time        total  log10-change:  magmom
                         energy   eigst   dens
iter:   1 15:35:26  -425.126763        c          +0.0000
iter:   2 15:35:35  -420.504110        c -0.76    +0.0000
iter:   3 15:35:45  -405.228753        c -0.81    +0.0000
iter:   4 15:35:54  -404.995683        c -1.19    +0.0000
iter:   5 15:36:03  -404.507721        c -1.45    +0.0000
iter:   6 15:36:12  -404.399936        c -1.94    +0.0000
iter:   7 15:36:21  -404.409213        c -2.24    +0.0000
iter:   8 15:36:31  -404.387021c       c -2.40    +0.0000
iter:   9 15:36:40  -404.386792c       c -3.11    +0.0000
iter:  10 15:36:49  -404.386307c       c -3.26    +0.0000
iter:  11 15:36:59  -404.386306c       c -3.94    +0.0000
iter:  12 15:37:08  -404.386305c       c -3.97    +0.0000
iter:  13 15:37:18  -404.386302c       c -4.12c   +0.0000

Converged after 13 iterations.

Dipole moment: (-22.823172, -5.636588, -0.000000) |e|*Ang

Total magnetic moment: (0.000000, 0.000000, 0.000000)
Local magnetic moments:
   0 B  ( 0.000000,  0.000000,  0.000000)
   1 B  ( 0.000000,  0.000000,  0.000000)
   2 N  ( 0.000000,  0.000000, -0.000000)
   3 B  ( 0.000000,  0.000000,  0.000000)
   4 N  ( 0.000000,  0.000000,  0.000000)
   5 B  ( 0.000000,  0.000000,  0.000000)
   6 N  ( 0.000000,  0.000000,  0.000000)
   7 B  ( 0.000000,  0.000000,  0.000000)
   8 N  ( 0.000000,  0.000000, -0.000000)
   9 B  ( 0.000000,  0.000000,  0.000000)
  10 N  ( 0.000000,  0.000000, -0.000000)
  11 B  ( 0.000000,  0.000000,  0.000000)
  12 N  ( 0.000000,  0.000000,  0.000000)
  13 B  ( 0.000000,  0.000000,  0.000000)
  14 N  ( 0.000000,  0.000000,  0.000000)
  15 B  ( 0.000000,  0.000000,  0.000000)
  16 N  ( 0.000000,  0.000000, -0.000000)
  17 B  ( 0.000000,  0.000000,  0.000000)
  18 N  ( 0.000000,  0.000000,  0.000000)
  19 B  ( 0.000000,  0.000000,  0.000000)
  20 N  ( 0.000000,  0.000000,  0.000000)
  21 B  ( 0.000000,  0.000000, -0.000000)
  22 N  ( 0.000000,  0.000000, -0.000000)
  23 B  ( 0.000000,  0.000000,  0.000000)
  24 N  ( 0.000000,  0.000000,  0.000000)
  25 B  ( 0.000000,  0.000000,  0.000000)
  26 N  ( 0.000000,  0.000000, -0.000000)
  27 B  ( 0.000000,  0.000000,  0.000000)
  28 N  ( 0.000000,  0.000000, -0.000000)
  29 B  ( 0.000000,  0.000000,  0.000000)
  30 N  ( 0.000000,  0.000000, -0.000000)
  31 B  ( 0.000000,  0.000000,  0.000000)
  32 N  ( 0.000000,  0.000000, -0.000000)
  33 B  ( 0.000000,  0.000000, -0.000000)
  34 N  ( 0.000000,  0.000000, -0.000000)
  35 B  ( 0.000000,  0.000000, -0.000000)
  36 N  ( 0.000000,  0.000000,  0.000000)
  37 B  ( 0.000000,  0.000000,  0.000000)
  38 N  ( 0.000000,  0.000000, -0.000000)
  39 B  ( 0.000000,  0.000000,  0.000000)
  40 N  ( 0.000000,  0.000000, -0.000000)
  41 B  ( 0.000000,  0.000000,  0.000000)
  42 N  ( 0.000000,  0.000000,  0.000000)
  43 B  ( 0.000000,  0.000000, -0.000000)
  44 N  ( 0.000000,  0.000000, -0.000000)
  45 B  ( 0.000000,  0.000000,  0.000000)
  46 N  ( 0.000000,  0.000000,  0.000000)
  47 B  ( 0.000000,  0.000000,  0.000000)
  48 N  ( 0.000000,  0.000000,  0.000000)

Energy contributions relative to reference atoms: (reference = -52298.555282)

Kinetic:       +365.432115
Potential:     -372.138613
External:        +0.000000
XC:            -413.190550
Entropy (-ST):   -0.069315
Local:          +15.545403
SIC:             +0.000000
--------------------------
Free energy:   -404.420959
Extrapolated:  -404.386302

Spin contamination: 0.000000 electrons
                   Up                     Down
 Band  Eigenvalues  Occupancy  Eigenvalues  Occupancy
    0    -22.78967    1.00000    -22.78967    1.00000
    1    -22.13785    1.00000    -22.13785    1.00000
    2    -22.13765    1.00000    -22.13765    1.00000
    3    -22.08245    1.00000    -22.08245    1.00000
    4    -22.08229    1.00000    -22.08229    1.00000
    5    -22.05247    1.00000    -22.05247    1.00000
    6    -21.77152    1.00000    -21.77152    1.00000
    7    -20.79935    1.00000    -20.79935    1.00000
    8    -20.77949    1.00000    -20.77949    1.00000
    9    -20.77945    1.00000    -20.77945    1.00000
   10    -20.76160    1.00000    -20.76160    1.00000
   11    -20.76154    1.00000    -20.76154    1.00000
   12    -20.53226    1.00000    -20.53226    1.00000
   13    -20.32643    1.00000    -20.32643    1.00000
   14    -20.32618    1.00000    -20.32618    1.00000
   15    -20.26551    1.00000    -20.26551    1.00000
   16    -20.26529    1.00000    -20.26529    1.00000
   17    -20.25658    1.00000    -20.25658    1.00000
   18    -19.78413    1.00000    -19.78413    1.00000
   19    -19.53555    1.00000    -19.53555    1.00000
   20    -19.45106    1.00000    -19.45106    1.00000
   21    -19.45101    1.00000    -19.45101    1.00000
   22    -19.40306    1.00000    -19.40306    1.00000
   23    -19.40299    1.00000    -19.40299    1.00000
   24    -13.68585    1.00000    -13.68585    1.00000
   25    -13.64243    1.00000    -13.64243    1.00000
   26    -13.64167    1.00000    -13.64167    1.00000
   27    -13.60218    1.00000    -13.60218    1.00000
   28    -13.51156    1.00000    -13.51156    1.00000
   29    -13.45764    1.00000    -13.45764    1.00000
   30    -13.45690    1.00000    -13.45690    1.00000
   31    -13.26547    1.00000    -13.26547    1.00000
   32    -13.21876    1.00000    -13.21876    1.00000
   33    -13.21812    1.00000    -13.21812    1.00000
   34    -12.89529    1.00000    -12.89529    1.00000
   35    -12.89495    1.00000    -12.89495    1.00000
   36    -12.22513    1.00000    -12.22513    1.00000
   37    -11.68200    1.00000    -11.68200    1.00000
   38    -11.67955    1.00000    -11.67955    1.00000
   39    -11.67837    1.00000    -11.67837    1.00000
   40    -11.48025    1.00000    -11.48025    1.00000
   41    -11.47917    1.00000    -11.47917    1.00000
   42    -11.12749    1.00000    -11.12749    1.00000
   43    -11.12689    1.00000    -11.12689    1.00000
   44    -11.10896    1.00000    -11.10896    1.00000
   45    -11.09585    1.00000    -11.09585    1.00000
   46    -10.69885    1.00000    -10.69885    1.00000
   47    -10.69822    1.00000    -10.69822    1.00000
   48    -10.26996    1.00000    -10.26996    1.00000
   49     -9.91548    1.00000     -9.91548    1.00000
   50     -9.91173    1.00000     -9.91173    1.00000
   51     -9.91077    1.00000     -9.91077    1.00000
   52     -9.89987    1.00000     -9.89987    1.00000
   53     -9.71736    1.00000     -9.71736    1.00000
   54     -9.63114    1.00000     -9.63114    1.00000
   55     -9.63032    1.00000     -9.63032    1.00000
   56     -9.34279    1.00000     -9.34279    1.00000
   57     -9.34258    1.00000     -9.34258    1.00000
   58     -9.30107    1.00000     -9.30107    1.00000
   59     -9.30082    1.00000     -9.30082    1.00000
   60     -9.28094    1.00000     -9.28094    1.00000
   61     -9.16982    1.00000     -9.16982    1.00000
   62     -9.16798    1.00000     -9.16798    1.00000
   63     -9.16728    1.00000     -9.16728    1.00000
   64     -9.13520    1.00000     -9.13520    1.00000
   65     -9.13437    1.00000     -9.13437    1.00000
   66     -9.12043    1.00000     -9.12043    1.00000
   67     -9.08928    1.00000     -9.08928    1.00000
   68     -9.08218    1.00000     -9.08218    1.00000
   69     -9.08202    1.00000     -9.08202    1.00000
   70     -8.91088    1.00000     -8.91088    1.00000
   71     -8.12819    1.00000     -8.12819    1.00000
   72     -8.12692    1.00000     -8.12692    1.00000
   73     -7.71328    1.00000     -7.71328    1.00000
   74     -7.66922    1.00000     -7.66922    1.00000
   75     -7.66867    1.00000     -7.66867    1.00000
   76     -7.66800    1.00000     -7.66800    1.00000
   77     -7.48290    1.00000     -7.48290    1.00000
   78     -7.45988    1.00000     -7.45988    1.00000
   79     -7.45986    1.00000     -7.45986    1.00000
   80     -7.45452    1.00000     -7.45452    1.00000
   81     -7.45447    1.00000     -7.45447    1.00000
   82     -7.15331    1.00000     -7.15331    1.00000
   83     -6.77244    1.00000     -6.77244    1.00000
   84     -6.77238    1.00000     -6.77238    1.00000
   85     -6.72442    1.00000     -6.72442    1.00000
   86     -6.72428    1.00000     -6.72428    1.00000
   87     -6.71624    1.00000     -6.71624    1.00000
   88     -6.65266    1.00000     -6.65266    1.00000
   89     -6.65056    1.00000     -6.65056    1.00000
   90     -6.18043    1.00000     -6.18043    1.00000
   91     -6.07319    1.00000     -6.07319    1.00000
   92     -5.50758    1.00000     -5.50758    1.00000
   93     -5.44865    1.00000     -5.44865    1.00000
   94     -5.44861    1.00000     -5.44861    1.00000
   95     -5.41063    1.00000     -5.41063    1.00000
   96     -5.41057    1.00000     -5.41057    1.00000
   97     -1.60861    0.50000     -1.60861    0.50000
   98     -0.49074    0.00000     -0.49074    0.00000
   99     -0.48892    0.00000     -0.48892    0.00000
  100     -0.22231    0.00000     -0.22231    0.00000
  101     -0.22218    0.00000     -0.22218    0.00000
  102     -0.19291    0.00000     -0.19291    0.00000
  103     -0.14502    0.00000     -0.14502    0.00000
  104     -0.14484    0.00000     -0.14484    0.00000
  105      0.00607    0.00000      0.00607    0.00000
  106      0.88827    0.00000      0.88827    0.00000
  107      0.88835    0.00000      0.88835    0.00000
  108      0.91410    0.00000      0.91410    0.00000
  109      0.96280    0.00000      0.96280    0.00000
  110      0.96289    0.00000      0.96289    0.00000
  111      1.40794    0.00000      1.40794    0.00000
  112      2.18412    0.00000      2.18412    0.00000
  113      2.21001    0.00000      2.21001    0.00000
  114      2.21004    0.00000      2.21004    0.00000
  115      2.26651    0.00000      2.26651    0.00000
  116      2.26668    0.00000      2.26668    0.00000
  117      3.08553    0.00000      3.08553    0.00000
  118      3.27012    0.00000      3.27012    0.00000
  119      3.55543    0.00000      3.55543    0.00000
  120      3.55706    0.00000      3.55706    0.00000

Fermi level: -1.60861

Gap: 3.802 eV
Transition (v -> c):
  (s=1, k=0, n=96, [0.00, 0.00, 0.00]) -> (s=0, k=0, n=97, [0.00, 0.00, 0.00])
No difference between direct/indirect transitions

Forces in eV/Ang:
  0 B     0.01097    1.29695    0.00000
  1 B     1.12658   -0.66041    0.00000
  2 N     0.79088   -0.82229    0.00000
  3 B    -0.24319    0.06535    0.00000
  4 N    -0.12250   -0.22757    0.00000
  5 B    -0.03213   -0.03231    0.00000
  6 N    -0.17831    0.06513    0.00000
  7 B    -0.06662   -0.23438    0.00000
  8 N    -0.22240    1.19449    0.00000
  9 B     0.38440   -0.22701    0.00000
 10 N    -1.10712   -0.44167    0.00000
 11 B    -1.11772   -0.66809    0.00000
 12 N    -0.88331   -0.80860    0.00000
 13 B     0.01141    0.42515    0.00000
 14 N    -0.03107   -0.14464    0.00000
 15 B     0.06634    0.08298    0.00000
 16 N    -0.08256    0.04338    0.00000
 17 B     0.11156   -0.00246    0.00000
 18 N    -0.07193    0.15845    0.00000
 19 B     0.06543   -0.09717    0.00000
 20 N    -0.07552    0.10702    0.00000
 21 B     0.17507    0.17350    0.00000
 22 N     0.04030   -0.09335    0.00000
 23 B     0.26551    0.06642    0.00000
 24 N     0.08779   -0.17918    0.00000
 25 B    -0.04354    0.08311    0.00000
 26 N     0.07621    0.07555    0.00000
 27 B     0.01149   -0.00971    0.00000
 28 N     0.02462    0.23959    0.00000
 29 B    -0.04270   -0.09776    0.00000
 30 N     0.13280    0.11130    0.00000
 31 B     0.01119    0.03802    0.00000
 32 N     0.03307   -0.02728    0.00000
 33 B     0.02680    0.00943    0.00000
 34 N     0.09388   -0.05842    0.00000
 35 B     0.05338   -0.03217    0.00000
 36 N     0.15067    0.11802    0.00000
 37 B    -0.08958   -0.00270    0.00000
 38 N     0.07263    0.19528    0.00000
 39 B    -0.36338   -0.22820    0.00000
 40 N     1.05558   -0.43459    0.00000
 41 B    -0.15291    0.17226    0.00000
 42 N    -0.03570   -0.11982    0.00000
 43 B    -0.00547    0.00882    0.00000
 44 N    -0.08208   -0.08906    0.00000
 45 B     0.01014   -0.01667    0.00000
 46 N    -0.02094    0.09664    0.00000
 47 B     0.08665   -0.23459    0.00000
 48 N     0.14344    1.21981    0.00000

System changes: positions 

Initializing position-dependent things.

Density initialized from wave functions
                                                            
                                                            
                                                            
                                                            
              N     N     N     N     N                     
             B N   B  N  B  N  B  N  B  N                   
              B      B     B     B     B                    
                BN    BN     B     BN    BN                 
                   N     N     N     N      N               
                  B     B  N  B  N  B  N   B N              
                    B     B     B     B     B               
                                                            
                                                            
                                                            
                                                            

Positions:
   0 B      0.000157    0.018528   20.000000    ( 0.0000,  0.0000,  0.0000)
   1 B     -1.233906    2.155629   20.000000    ( 0.0000,  0.0000,  0.0000)
   2 N     -1.238702    3.596692   20.000000    ( 0.0000,  0.0000,  0.0000)
   3 B     -2.503474    4.331061   20.000000    ( 0.0000,  0.0000,  0.0000)
   4 N     -2.501750    5.770252   20.000000    ( 0.0000,  0.0000,  0.0000)
   5 B     -3.750459    6.494729   20.000000    ( 0.0000,  0.0000,  0.0000)
   6 N     -3.752547    7.939497   20.000000    ( 0.0000,  0.0000,  0.0000)
   7 B     -5.000952    8.656906   20.000000    ( 0.0000,  0.0000,  0.0000)
   8 N     -5.003177   10.120694   20.000000    ( 0.0000,  0.0000,  0.0000)
   9 B      2.505491   -0.003243   20.000000    ( 0.0000,  0.0000,  0.0000)
  10 N      2.484184    1.437066   20.000000    ( 0.0000,  0.0000,  0.0000)
  11 B      1.234033    2.155519   20.000000    ( 0.0000,  0.0000,  0.0000)
  12 N      1.237381    3.596888   20.000000    ( 0.0000,  0.0000,  0.0000)
  13 B      0.000163    4.336201   20.000000    ( 0.0000,  0.0000,  0.0000)
  14 N     -0.000444    5.771436   20.000000    ( 0.0000,  0.0000,  0.0000)
  15 B     -1.249052    6.496376   20.000000    ( 0.0000,  0.0000,  0.0000)
  16 N     -1.251179    7.939186   20.000000    ( 0.0000,  0.0000,  0.0000)
  17 B     -2.498406    8.660219   20.000000    ( 0.0000,  0.0000,  0.0000)
  18 N     -2.501028   10.105893   20.000000    ( 0.0000,  0.0000,  0.0000)
  19 B      5.000935   -0.001388   20.000000    ( 0.0000,  0.0000,  0.0000)
  20 N      4.998921    1.444904   20.000000    ( 0.0000,  0.0000,  0.0000)
  21 B      3.752501    2.167542   20.000000    ( 0.0000,  0.0000,  0.0000)
  22 N      3.750576    3.607106   20.000000    ( 0.0000,  0.0000,  0.0000)
  23 B      2.503793    4.331076   20.000000    ( 0.0000,  0.0000,  0.0000)
  24 N      2.501254    5.770943   20.000000    ( 0.0000,  0.0000,  0.0000)
  25 B      1.249378    6.496378   20.000000    ( 0.0000,  0.0000,  0.0000)
  26 N      1.251089    7.939645   20.000000    ( 0.0000,  0.0000,  0.0000)
  27 B      0.000164    8.660115   20.000000    ( 0.0000,  0.0000,  0.0000)
  28 N      0.000352   10.107052   20.000000    ( 0.0000,  0.0000,  0.0000)
  29 B      7.499390   -0.001397   20.000000    ( 0.0000,  0.0000,  0.0000)
  30 N      7.501897    1.444966   20.000000    ( 0.0000,  0.0000,  0.0000)
  31 B      6.250160    2.165607   20.000000    ( 0.0000,  0.0000,  0.0000)
  32 N      6.250472    3.608049   20.000000    ( 0.0000,  0.0000,  0.0000)
  33 B      5.000383    4.330262   20.000000    ( 0.0000,  0.0000,  0.0000)
  34 N      5.001341    5.772668   20.000000    ( 0.0000,  0.0000,  0.0000)
  35 B      3.750763    6.494731   20.000000    ( 0.0000,  0.0000,  0.0000)
  36 N      3.752152    7.940252   20.000000    ( 0.0000,  0.0000,  0.0000)
  37 B      2.498720    8.660216   20.000000    ( 0.0000,  0.0000,  0.0000)
  38 N      2.501038   10.106419   20.000000    ( 0.0000,  0.0000,  0.0000)
  39 B      9.994809   -0.003260   20.000000    ( 0.0000,  0.0000,  0.0000)
  40 N     10.015080    1.437167   20.000000    ( 0.0000,  0.0000,  0.0000)
  41 B      8.747816    2.167524   20.000000    ( 0.0000,  0.0000,  0.0000)
  42 N      8.749490    3.606727   20.000000    ( 0.0000,  0.0000,  0.0000)
  43 B      7.499922    4.330253   20.000000    ( 0.0000,  0.0000,  0.0000)
  44 N      7.498827    5.772230   20.000000    ( 0.0000,  0.0000,  0.0000)
  45 B      6.250145    6.494952   20.000000    ( 0.0000,  0.0000,  0.0000)
  46 N      6.249701    7.939947   20.000000    ( 0.0000,  0.0000,  0.0000)
  47 B      5.001238    8.656903   20.000000    ( 0.0000,  0.0000,  0.0000)
  48 N      5.002049   10.121056   20.000000    ( 0.0000,  0.0000,  0.0000)

Unit cell:
           periodic     x           y           z      points  spacing
  1. axis:    yes   12.500000    0.000000    0.000000    56     0.1933
  2. axis:    yes   -6.250000   10.825318    0.000000    56     0.1933
  3. axis:    yes    0.000000    0.000000   40.000000   200     0.2000

  Lengths:  12.500000  12.500000  40.000000
  Angles:   90.000000  90.000000 120.000000

Effective grid spacing dv^(1/3) = 0.2051

     iter     time        total  log10-change:  magmom
                         energy   eigst   dens
iter:   1 15:37:47  -404.556950        c          +0.0000
iter:   2 15:37:56  -404.551987        c -2.62    +0.0000
iter:   3 15:38:06  -404.538374c       c -2.68    +0.0000
iter:   4 15:38:15  -404.537621c       c -3.12    +0.0000
iter:   5 15:38:25  -404.537595c       c -3.63    +0.0000
iter:   6 15:38:34  -404.537561c       c -3.73    +0.0000
iter:   7 15:38:44  -404.537559c       c -4.04c   +0.0000

Converged after 7 iterations.

Dipole moment: (-23.876727, -5.538581, 0.000000) |e|*Ang

Total magnetic moment: (0.000000, 0.000000, 0.000000)
Local magnetic moments:
   0 B  ( 0.000000,  0.000000,  0.000000)
   1 B  ( 0.000000,  0.000000,  0.000000)
   2 N  ( 0.000000,  0.000000,  0.000000)
   3 B  ( 0.000000,  0.000000,  0.000000)
   4 N  ( 0.000000,  0.000000, -0.000000)
   5 B  ( 0.000000,  0.000000, -0.000000)
   6 N  ( 0.000000,  0.000000,  0.000000)
   7 B  ( 0.000000,  0.000000,  0.000000)
   8 N  ( 0.000000,  0.000000, -0.000000)
   9 B  ( 0.000000,  0.000000,  0.000000)
  10 N  ( 0.000000,  0.000000, -0.000000)
  11 B  ( 0.000000,  0.000000,  0.000000)
  12 N  ( 0.000000,  0.000000, -0.000000)
  13 B  ( 0.000000,  0.000000,  0.000000)
  14 N  ( 0.000000,  0.000000,  0.000000)
  15 B  ( 0.000000,  0.000000,  0.000000)
  16 N  ( 0.000000,  0.000000,  0.000000)
  17 B  ( 0.000000,  0.000000,  0.000000)
  18 N  ( 0.000000,  0.000000, -0.000000)
  19 B  ( 0.000000,  0.000000,  0.000000)
  20 N  ( 0.000000,  0.000000, -0.000000)
  21 B  ( 0.000000,  0.000000,  0.000000)
  22 N  ( 0.000000,  0.000000,  0.000000)
  23 B  ( 0.000000,  0.000000,  0.000000)
  24 N  ( 0.000000,  0.000000, -0.000000)
  25 B  ( 0.000000,  0.000000,  0.000000)
  26 N  ( 0.000000,  0.000000, -0.000000)
  27 B  ( 0.000000,  0.000000,  0.000000)
  28 N  ( 0.000000,  0.000000,  0.000000)
  29 B  ( 0.000000,  0.000000,  0.000000)
  30 N  ( 0.000000,  0.000000, -0.000000)
  31 B  ( 0.000000,  0.000000,  0.000000)
  32 N  ( 0.000000,  0.000000, -0.000000)
  33 B  ( 0.000000,  0.000000,  0.000000)
  34 N  ( 0.000000,  0.000000, -0.000000)
  35 B  ( 0.000000,  0.000000,  0.000000)
  36 N  ( 0.000000,  0.000000,  0.000000)
  37 B  ( 0.000000,  0.000000,  0.000000)
  38 N  ( 0.000000,  0.000000, -0.000000)
  39 B  ( 0.000000,  0.000000,  0.000000)
  40 N  ( 0.000000,  0.000000, -0.000000)
  41 B  ( 0.000000,  0.000000,  0.000000)
  42 N  ( 0.000000,  0.000000, -0.000000)
  43 B  ( 0.000000,  0.000000, -0.000000)
  44 N  ( 0.000000,  0.000000, -0.000000)
  45 B  ( 0.000000,  0.000000,  0.000000)
  46 N  ( 0.000000,  0.000000,  0.000000)
  47 B  ( 0.000000,  0.000000,  0.000000)
  48 N  ( 0.000000,  0.000000,  0.000000)

Energy contributions relative to reference atoms: (reference = -52298.555282)

Kinetic:       +362.964119
Potential:     -370.346861
External:        +0.000000
XC:            -412.706945
Entropy (-ST):   -0.069315
Local:          +15.586786
SIC:             +0.000000
--------------------------
Free energy:   -404.572216
Extrapolated:  -404.537559

Spin contamination: 0.000000 electrons
                   Up                     Down
 Band  Eigenvalues  Occupancy  Eigenvalues  Occupancy
    0    -22.79101    1.00000    -22.79101    1.00000
    1    -22.11304    1.00000    -22.11304    1.00000
    2    -22.10883    1.00000    -22.10883    1.00000
    3    -22.09108    1.00000    -22.09108    1.00000
    4    -22.07807    1.00000    -22.07807    1.00000
    5    -22.07449    1.00000    -22.07449    1.00000
    6    -21.72263    1.00000    -21.72263    1.00000
    7    -20.77245    1.00000    -20.77245    1.00000
    8    -20.77199    1.00000    -20.77199    1.00000
    9    -20.76408    1.00000    -20.76408    1.00000
   10    -20.74879    1.00000    -20.74879    1.00000
   11    -20.74806    1.00000    -20.74806    1.00000
   12    -20.55633    1.00000    -20.55633    1.00000
   13    -20.29648    1.00000    -20.29648    1.00000
   14    -20.28701    1.00000    -20.28701    1.00000
   15    -20.28438    1.00000    -20.28438    1.00000
   16    -20.27136    1.00000    -20.27136    1.00000
   17    -20.26537    1.00000    -20.26537    1.00000
   18    -19.81680    1.00000    -19.81680    1.00000
   19    -19.47006    1.00000    -19.47006    1.00000
   20    -19.46658    1.00000    -19.46658    1.00000
   21    -19.43494    1.00000    -19.43494    1.00000
   22    -19.43041    1.00000    -19.43041    1.00000
   23    -19.42665    1.00000    -19.42665    1.00000
   24    -13.65678    1.00000    -13.65678    1.00000
   25    -13.62994    1.00000    -13.62994    1.00000
   26    -13.61691    1.00000    -13.61691    1.00000
   27    -13.61106    1.00000    -13.61106    1.00000
   28    -13.51133    1.00000    -13.51133    1.00000
   29    -13.48171    1.00000    -13.48171    1.00000
   30    -13.47981    1.00000    -13.47981    1.00000
   31    -13.24271    1.00000    -13.24271    1.00000
   32    -13.23801    1.00000    -13.23801    1.00000
   33    -13.23472    1.00000    -13.23472    1.00000
   34    -12.86413    1.00000    -12.86413    1.00000
   35    -12.86253    1.00000    -12.86253    1.00000
   36    -12.23950    1.00000    -12.23950    1.00000
   37    -11.68079    1.00000    -11.68079    1.00000
   38    -11.66581    1.00000    -11.66581    1.00000
   39    -11.66442    1.00000    -11.66442    1.00000
   40    -11.43309    1.00000    -11.43309    1.00000
   41    -11.43207    1.00000    -11.43207    1.00000
   42    -11.14235    1.00000    -11.14235    1.00000
   43    -11.11681    1.00000    -11.11681    1.00000
   44    -11.11372    1.00000    -11.11372    1.00000
   45    -11.10067    1.00000    -11.10067    1.00000
   46    -10.69296    1.00000    -10.69296    1.00000
   47    -10.68741    1.00000    -10.68741    1.00000
   48    -10.27207    1.00000    -10.27207    1.00000
   49     -9.93307    1.00000     -9.93307    1.00000
   50     -9.89550    1.00000     -9.89550    1.00000
   51     -9.89457    1.00000     -9.89457    1.00000
   52     -9.87033    1.00000     -9.87033    1.00000
   53     -9.73652    1.00000     -9.73652    1.00000
   54     -9.66038    1.00000     -9.66038    1.00000
   55     -9.65413    1.00000     -9.65413    1.00000
   56     -9.32982    1.00000     -9.32982    1.00000
   57     -9.32457    1.00000     -9.32457    1.00000
   58     -9.31684    1.00000     -9.31684    1.00000
   59     -9.29353    1.00000     -9.29353    1.00000
   60     -9.28872    1.00000     -9.28872    1.00000
   61     -9.17306    1.00000     -9.17306    1.00000
   62     -9.16507    1.00000     -9.16507    1.00000
   63     -9.16265    1.00000     -9.16265    1.00000
   64     -9.11969    1.00000     -9.11969    1.00000
   65     -9.11335    1.00000     -9.11335    1.00000
   66     -9.11053    1.00000     -9.11053    1.00000
   67     -9.09421    1.00000     -9.09421    1.00000
   68     -9.09023    1.00000     -9.09023    1.00000
   69     -9.07565    1.00000     -9.07565    1.00000
   70     -8.87251    1.00000     -8.87251    1.00000
   71     -8.12820    1.00000     -8.12820    1.00000
   72     -8.12292    1.00000     -8.12292    1.00000
   73     -7.74940    1.00000     -7.74940    1.00000
   74     -7.69248    1.00000     -7.69248    1.00000
   75     -7.68878    1.00000     -7.68878    1.00000
   76     -7.62122    1.00000     -7.62122    1.00000
   77     -7.46624    1.00000     -7.46624    1.00000
   78     -7.46578    1.00000     -7.46578    1.00000
   79     -7.45261    1.00000     -7.45261    1.00000
   80     -7.43911    1.00000     -7.43911    1.00000
   81     -7.43875    1.00000     -7.43875    1.00000
   82     -7.18184    1.00000     -7.18184    1.00000
   83     -6.75347    1.00000     -6.75347    1.00000
   84     -6.74368    1.00000     -6.74368    1.00000
   85     -6.74290    1.00000     -6.74290    1.00000
   86     -6.72192    1.00000     -6.72192    1.00000
   87     -6.71583    1.00000     -6.71583    1.00000
   88     -6.68044    1.00000     -6.68044    1.00000
   89     -6.67105    1.00000     -6.67105    1.00000
   90     -6.18782    1.00000     -6.18782    1.00000
   91     -6.09999    1.00000     -6.09999    1.00000
   92     -5.47107    1.00000     -5.47107    1.00000
   93     -5.46893    1.00000     -5.46893    1.00000
   94     -5.43335    1.00000     -5.43335    1.00000
   95     -5.43038    1.00000     -5.43038    1.00000
   96     -5.42013    1.00000     -5.42013    1.00000
   97     -1.58903    0.50000     -1.58903    0.50000
   98     -0.33245    0.00000     -0.33245    0.00000
   99     -0.33081    0.00000     -0.33081    0.00000
  100     -0.24051    0.00000     -0.24051    0.00000
  101     -0.23119    0.00000     -0.23119    0.00000
  102     -0.22927    0.00000     -0.22927    0.00000
  103     -0.11740    0.00000     -0.11740    0.00000
  104     -0.11668    0.00000     -0.11668    0.00000
  105     -0.00361    0.00000     -0.00361    0.00000
  106      0.84334    0.00000      0.84334    0.00000
  107      0.85313    0.00000      0.85313    0.00000
  108      0.93120    0.00000      0.93120    0.00000
  109      0.98563    0.00000      0.98563    0.00000
  110      0.99686    0.00000      0.99686    0.00000
  111      1.40147    0.00000      1.40147    0.00000
  112      2.14176    0.00000      2.14176    0.00000
  113      2.22175    0.00000      2.22175    0.00000
  114      2.22381    0.00000      2.22381    0.00000
  115      2.28335    0.00000      2.28335    0.00000
  116      2.28482    0.00000      2.28482    0.00000
  117      3.08787    0.00000      3.08787    0.00000
  118      3.25127    0.00000      3.25127    0.00000
  119      3.52790    0.00000      3.52790    0.00000
  120      3.52987    0.00000      3.52987    0.00000

Fermi level: -1.58903

Gap: 3.831 eV
Transition (v -> c):
  (s=1, k=0, n=96, [0.00, 0.00, 0.00]) -> (s=0, k=0, n=97, [0.00, 0.00, 0.00])
No difference between direct/indirect transitions

Forces in eV/Ang:
  0 B    -0.01621    1.30042    0.00000
  1 B     1.08040   -0.67980    0.00000
  2 N     0.23101   -0.30770    0.00000
  3 B     0.28808   -0.41030    0.00000
  4 N    -0.00651   -0.03780    0.00000
  5 B    -0.07138   -0.03245    0.00000
  6 N    -0.01459    0.00217    0.00000
  7 B    -0.13292    0.51592    0.00000
  8 N    -0.10278    0.24883    0.00000
  9 B    -0.04577    0.03548    0.00000
 10 N    -0.30911   -0.00601    0.00000
 11 B    -1.10279   -0.67459    0.00000
 12 N    -0.27130   -0.31358    0.00000
 13 B    -0.02857   -0.11451    0.00000
 14 N    -0.00156    0.22721    0.00000
 15 B    -0.03660   -0.05850    0.00000
 16 N     0.02119    0.02098    0.00000
 17 B    -0.06749    0.09508    0.00000
 18 N     0.22045   -0.09853    0.00000
 19 B    -0.03551    0.07337    0.00000
 20 N    -0.00426   -0.01294    0.00000
 21 B    -0.45195   -0.17997    0.00000
 22 N     0.07948    0.03912    0.00000
 23 B    -0.31237   -0.39472    0.00000
 24 N     0.01230   -0.03139    0.00000
 25 B     0.00733   -0.03899    0.00000
 26 N    -0.01184    0.02712    0.00000
 27 B     0.00197    0.09890    0.00000
 28 N     0.01200    0.00299    0.00000
 29 B     0.06534    0.08907    0.00000
 30 N     0.01477   -0.01392    0.00000
 31 B     0.02845    0.00594    0.00000
 32 N     0.00378    0.01689    0.00000
 33 B     0.05058   -0.04340    0.00000
 34 N     0.02247   -0.00433    0.00000
 35 B     0.07392   -0.00166    0.00000
 36 N     0.01298    0.01130    0.00000
 37 B     0.06462    0.12853    0.00000
 38 N    -0.21213   -0.09221    0.00000
 39 B     0.02648    0.05823    0.00000
 40 N     0.27820   -0.00553    0.00000
 41 B     0.46507   -0.17221    0.00000
 42 N    -0.06745    0.03734    0.00000
 43 B    -0.01082   -0.05292    0.00000
 44 N    -0.01225   -0.00404    0.00000
 45 B     0.01167    0.01043    0.00000
 46 N    -0.00010   -0.08323    0.00000
 47 B     0.11977    0.53616    0.00000
 48 N     0.07830    0.25353    0.00000

System changes: positions 

Initializing position-dependent things.

Density initialized from wave functions
                                                            
                                                            
                                                            
                                                            
              N     N     N     N     N                     
             B N   B  N  B  N  B  N  B  N                   
              B      B     B     B     B                    
                BN    BN    BN     BN    BN                 
                   N     N     N     N     N                
                  B     B  N  B  N  B  N   B N              
                    B     B     B     B     B               
                                                            
                                                            
                                                            
                                                            

Positions:
   0 B     -0.000095    0.068763   20.000000    ( 0.0000,  0.0000,  0.0000)
   1 B     -1.191493    2.129611   20.000000    ( 0.0000,  0.0000,  0.0000)
   2 N     -1.222041    3.577691   20.000000    ( 0.0000,  0.0000,  0.0000)
   3 B     -2.499668    4.321761   20.000000    ( 0.0000,  0.0000,  0.0000)
   4 N     -2.503603    5.766170   20.000000    ( 0.0000,  0.0000,  0.0000)
   5 B     -3.752677    6.493476   20.000000    ( 0.0000,  0.0000,  0.0000)
   6 N     -3.755371    7.940450   20.000000    ( 0.0000,  0.0000,  0.0000)
   7 B     -5.005176    8.666498   20.000000    ( 0.0000,  0.0000,  0.0000)
   8 N     -5.008803   10.143369   20.000000    ( 0.0000,  0.0000,  0.0000)
   9 B      2.509659   -0.005494   20.000000    ( 0.0000,  0.0000,  0.0000)
  10 N      2.461217    1.430820   20.000000    ( 0.0000,  0.0000,  0.0000)
  11 B      1.191185    2.129525   20.000000    ( 0.0000,  0.0000,  0.0000)
  12 N      1.218443    3.577930   20.000000    ( 0.0000,  0.0000,  0.0000)
  13 B     -0.000390    4.339222   20.000000    ( 0.0000,  0.0000,  0.0000)
  14 N     -0.000911    5.775089   20.000000    ( 0.0000,  0.0000,  0.0000)
  15 B     -1.249047    6.496067   20.000000    ( 0.0000,  0.0000,  0.0000)
  16 N     -1.251792    7.940306   20.000000    ( 0.0000,  0.0000,  0.0000)
  17 B     -2.498544    8.662549   20.000000    ( 0.0000,  0.0000,  0.0000)
  18 N     -2.496539   10.105631   20.000000    ( 0.0000,  0.0000,  0.0000)
  19 B      5.000955   -0.000905   20.000000    ( 0.0000,  0.0000,  0.0000)
  20 N      4.997773    1.446060   20.000000    ( 0.0000,  0.0000,  0.0000)
  21 B      3.743681    2.165462   20.000000    ( 0.0000,  0.0000,  0.0000)
  22 N      3.753108    3.606790   20.000000    ( 0.0000,  0.0000,  0.0000)
  23 B      2.499691    4.322179   20.000000    ( 0.0000,  0.0000,  0.0000)
  24 N      2.502772    5.767689   20.000000    ( 0.0000,  0.0000,  0.0000)
  25 B      1.248959    6.496556   20.000000    ( 0.0000,  0.0000,  0.0000)
  26 N      1.251846    7.941363   20.000000    ( 0.0000,  0.0000,  0.0000)
  27 B      0.000372    8.662440   20.000000    ( 0.0000,  0.0000,  0.0000)
  28 N      0.000990   10.110434   20.000000    ( 0.0000,  0.0000,  0.0000)
  29 B      7.500425   -0.000531   20.000000    ( 0.0000,  0.0000,  0.0000)
  30 N      7.504098    1.446156   20.000000    ( 0.0000,  0.0000,  0.0000)
  31 B      6.251022    2.166279   20.000000    ( 0.0000,  0.0000,  0.0000)
  32 N      6.251023    3.608093   20.000000    ( 0.0000,  0.0000,  0.0000)
  33 B      5.002011    4.329313   20.000000    ( 0.0000,  0.0000,  0.0000)
  34 N      5.003196    5.771754   20.000000    ( 0.0000,  0.0000,  0.0000)
  35 B      3.753337    6.494245   20.000000    ( 0.0000,  0.0000,  0.0000)
  36 N      3.754555    7.942162   20.000000    ( 0.0000,  0.0000,  0.0000)
  37 B      2.499091    8.663374   20.000000    ( 0.0000,  0.0000,  0.0000)
  38 N      2.496766   10.106822   20.000000    ( 0.0000,  0.0000,  0.0000)
  39 B      9.990451   -0.004962   20.000000    ( 0.0000,  0.0000,  0.0000)
  40 N     10.036567    1.431031   20.000000    ( 0.0000,  0.0000,  0.0000)
  41 B      8.757268    2.165620   20.000000    ( 0.0000,  0.0000,  0.0000)
  42 N      8.747320    3.606002   20.000000    ( 0.0000,  0.0000,  0.0000)
  43 B      7.499577    4.329059   20.000000    ( 0.0000,  0.0000,  0.0000)
  44 N      7.497390    5.770901   20.000000    ( 0.0000,  0.0000,  0.0000)
  45 B      6.250575    6.494982   20.000000    ( 0.0000,  0.0000,  0.0000)
  46 N      6.249409    7.939211   20.000000    ( 0.0000,  0.0000,  0.0000)
  47 B      5.005412    8.666995   20.000000    ( 0.0000,  0.0000,  0.0000)
  48 N      5.005976   10.144197   20.000000    ( 0.0000,  0.0000,  0.0000)

Unit cell:
           periodic     x           y           z      points  spacing
  1. axis:    yes   12.500000    0.000000    0.000000    56     0.1933
  2. axis:    yes   -6.250000   10.825318    0.000000    56     0.1933
  3. axis:    yes    0.000000    0.000000   40.000000   200     0.2000

  Lengths:  12.500000  12.500000  40.000000
  Angles:   90.000000  90.000000 120.000000

Effective grid spacing dv^(1/3) = 0.2051

     iter     time        total  log10-change:  magmom
                         energy   eigst   dens
iter:   1 15:39:13  -404.820067        c          +0.0000
iter:   2 15:39:22  -404.800421        c -2.39    +0.0000
iter:   3 15:39:32  -404.744712c       c -2.45    +0.0000
iter:   4 15:39:41  -404.742192c       c -2.88    +0.0000
iter:   5 15:39:50  -404.741433c       c -3.22    +0.0000
iter:   6 15:40:00  -404.741331c       c -3.44    -0.0000
iter:   7 15:40:09  -404.741349c       c -3.78    +0.0000
iter:   8 15:40:19  -404.741325c       c -3.87    +0.0000
iter:   9 15:40:28  -404.741324c       c -4.36c   +0.0000

Converged after 9 iterations.

Dipole moment: (-26.268574, -7.345239, -0.000000) |e|*Ang

Total magnetic moment: (0.000000, 0.000000, 0.000000)
Local magnetic moments:
   0 B  ( 0.000000,  0.000000,  0.000000)
   1 B  ( 0.000000,  0.000000,  0.000000)
   2 N  ( 0.000000,  0.000000,  0.000000)
   3 B  ( 0.000000,  0.000000, -0.000000)
   4 N  ( 0.000000,  0.000000,  0.000000)
   5 B  ( 0.000000,  0.000000,  0.000000)
   6 N  ( 0.000000,  0.000000, -0.000000)
   7 B  ( 0.000000,  0.000000,  0.000000)
   8 N  ( 0.000000,  0.000000,  0.000000)
   9 B  ( 0.000000,  0.000000,  0.000000)
  10 N  ( 0.000000,  0.000000,  0.000000)
  11 B  ( 0.000000,  0.000000,  0.000000)
  12 N  ( 0.000000,  0.000000,  0.000000)
  13 B  ( 0.000000,  0.000000,  0.000000)
  14 N  ( 0.000000,  0.000000,  0.000000)
  15 B  ( 0.000000,  0.000000, -0.000000)
  16 N  ( 0.000000,  0.000000,  0.000000)
  17 B  ( 0.000000,  0.000000,  0.000000)
  18 N  ( 0.000000,  0.000000,  0.000000)
  19 B  ( 0.000000,  0.000000,  0.000000)
  20 N  ( 0.000000,  0.000000,  0.000000)
  21 B  ( 0.000000,  0.000000,  0.000000)
  22 N  ( 0.000000,  0.000000,  0.000000)
  23 B  ( 0.000000,  0.000000,  0.000000)
  24 N  ( 0.000000,  0.000000, -0.000000)
  25 B  ( 0.000000,  0.000000,  0.000000)
  26 N  ( 0.000000,  0.000000, -0.000000)
  27 B  ( 0.000000,  0.000000,  0.000000)
  28 N  ( 0.000000,  0.000000,  0.000000)
  29 B  ( 0.000000,  0.000000,  0.000000)
  30 N  ( 0.000000,  0.000000,  0.000000)
  31 B  ( 0.000000,  0.000000,  0.000000)
  32 N  ( 0.000000,  0.000000, -0.000000)
  33 B  ( 0.000000,  0.000000, -0.000000)
  34 N  ( 0.000000,  0.000000,  0.000000)
  35 B  ( 0.000000,  0.000000, -0.000000)
  36 N  ( 0.000000,  0.000000, -0.000000)
  37 B  ( 0.000000,  0.000000,  0.000000)
  38 N  ( 0.000000,  0.000000,  0.000000)
  39 B  ( 0.000000,  0.000000,  0.000000)
  40 N  ( 0.000000,  0.000000,  0.000000)
  41 B  ( 0.000000,  0.000000, -0.000000)
  42 N  ( 0.000000,  0.000000, -0.000000)
  43 B  ( 0.000000,  0.000000,  0.000000)
  44 N  ( 0.000000,  0.000000, -0.000000)
  45 B  ( 0.000000,  0.000000,  0.000000)
  46 N  ( 0.000000,  0.000000, -0.000000)
  47 B  ( 0.000000,  0.000000, -0.000000)
  48 N  ( 0.000000,  0.000000,  0.000000)

Energy contributions relative to reference atoms: (reference = -52298.555282)

Kinetic:       +356.027361
Potential:     -364.967298
External:        +0.000000
XC:            -411.335168
Entropy (-ST):   -0.069315
Local:          +15.568437
SIC:             +0.000000
--------------------------
Free energy:   -404.775982
Extrapolated:  -404.741324

Spin contamination: 0.000000 electrons
                   Up                     Down
 Band  Eigenvalues  Occupancy  Eigenvalues  Occupancy
    0    -22.77364    1.00000    -22.77364    1.00000
    1    -22.10372    1.00000    -22.10372    1.00000
    2    -22.08071    1.00000    -22.08071    1.00000
    3    -22.07824    1.00000    -22.07824    1.00000
    4    -22.04513    1.00000    -22.04513    1.00000
    5    -22.04146    1.00000    -22.04146    1.00000
    6    -21.69804    1.00000    -21.69804    1.00000
    7    -20.76255    1.00000    -20.76255    1.00000
    8    -20.76206    1.00000    -20.76206    1.00000
    9    -20.73322    1.00000    -20.73322    1.00000
   10    -20.73230    1.00000    -20.73230    1.00000
   11    -20.70065    1.00000    -20.70065    1.00000
   12    -20.54756    1.00000    -20.54756    1.00000
   13    -20.29916    1.00000    -20.29916    1.00000
   14    -20.28326    1.00000    -20.28326    1.00000
   15    -20.27917    1.00000    -20.27917    1.00000
   16    -20.20864    1.00000    -20.20864    1.00000
   17    -20.20470    1.00000    -20.20470    1.00000
   18    -19.84192    1.00000    -19.84192    1.00000
   19    -19.45840    1.00000    -19.45840    1.00000
   20    -19.45457    1.00000    -19.45457    1.00000
   21    -19.42343    1.00000    -19.42343    1.00000
   22    -19.42030    1.00000    -19.42030    1.00000
   23    -19.31350    1.00000    -19.31350    1.00000
   24    -13.64844    1.00000    -13.64844    1.00000
   25    -13.61575    1.00000    -13.61575    1.00000
   26    -13.57947    1.00000    -13.57947    1.00000
   27    -13.57667    1.00000    -13.57667    1.00000
   28    -13.51073    1.00000    -13.51073    1.00000
   29    -13.48299    1.00000    -13.48299    1.00000
   30    -13.48098    1.00000    -13.48098    1.00000
   31    -13.23486    1.00000    -13.23486    1.00000
   32    -13.23446    1.00000    -13.23446    1.00000
   33    -13.19968    1.00000    -13.19968    1.00000
   34    -12.85850    1.00000    -12.85850    1.00000
   35    -12.85269    1.00000    -12.85269    1.00000
   36    -12.29822    1.00000    -12.29822    1.00000
   37    -11.66262    1.00000    -11.66262    1.00000
   38    -11.62506    1.00000    -11.62506    1.00000
   39    -11.62362    1.00000    -11.62362    1.00000
   40    -11.37948    1.00000    -11.37948    1.00000
   41    -11.37736    1.00000    -11.37736    1.00000
   42    -11.13994    1.00000    -11.13994    1.00000
   43    -11.11698    1.00000    -11.11698    1.00000
   44    -11.10926    1.00000    -11.10926    1.00000
   45    -11.07516    1.00000    -11.07516    1.00000
   46    -10.68752    1.00000    -10.68752    1.00000
   47    -10.68250    1.00000    -10.68250    1.00000
   48    -10.25763    1.00000    -10.25763    1.00000
   49     -9.98415    1.00000     -9.98415    1.00000
   50     -9.87667    1.00000     -9.87667    1.00000
   51     -9.87487    1.00000     -9.87487    1.00000
   52     -9.83637    1.00000     -9.83637    1.00000
   53     -9.80135    1.00000     -9.80135    1.00000
   54     -9.65780    1.00000     -9.65780    1.00000
   55     -9.65112    1.00000     -9.65112    1.00000
   56     -9.32872    1.00000     -9.32872    1.00000
   57     -9.30351    1.00000     -9.30351    1.00000
   58     -9.30225    1.00000     -9.30225    1.00000
   59     -9.26257    1.00000     -9.26257    1.00000
   60     -9.26032    1.00000     -9.26032    1.00000
   61     -9.16041    1.00000     -9.16041    1.00000
   62     -9.15656    1.00000     -9.15656    1.00000
   63     -9.14644    1.00000     -9.14644    1.00000
   64     -9.08775    1.00000     -9.08775    1.00000
   65     -9.08539    1.00000     -9.08539    1.00000
   66     -9.07470    1.00000     -9.07470    1.00000
   67     -9.03586    1.00000     -9.03586    1.00000
   68     -9.02986    1.00000     -9.02986    1.00000
   69     -9.00975    1.00000     -9.00975    1.00000
   70     -8.85998    1.00000     -8.85998    1.00000
   71     -8.12724    1.00000     -8.12724    1.00000
   72     -8.11970    1.00000     -8.11970    1.00000
   73     -7.72073    1.00000     -7.72073    1.00000
   74     -7.68852    1.00000     -7.68852    1.00000
   75     -7.68154    1.00000     -7.68154    1.00000
   76     -7.55628    1.00000     -7.55628    1.00000
   77     -7.46456    1.00000     -7.46456    1.00000
   78     -7.46433    1.00000     -7.46433    1.00000
   79     -7.42196    1.00000     -7.42196    1.00000
   80     -7.42103    1.00000     -7.42103    1.00000
   81     -7.40091    1.00000     -7.40091    1.00000
   82     -7.18172    1.00000     -7.18172    1.00000
   83     -6.75558    1.00000     -6.75558    1.00000
   84     -6.74568    1.00000     -6.74568    1.00000
   85     -6.74319    1.00000     -6.74319    1.00000
   86     -6.67416    1.00000     -6.67416    1.00000
   87     -6.67226    1.00000     -6.67226    1.00000
   88     -6.66607    1.00000     -6.66607    1.00000
   89     -6.66415    1.00000     -6.66415    1.00000
   90     -6.56022    1.00000     -6.56022    1.00000
   91     -6.12513    1.00000     -6.12513    1.00000
   92     -5.46453    1.00000     -5.46453    1.00000
   93     -5.46295    1.00000     -5.46295    1.00000
   94     -5.42786    1.00000     -5.42786    1.00000
   95     -5.42461    1.00000     -5.42461    1.00000
   96     -5.35343    1.00000     -5.35343    1.00000
   97     -1.75501    0.50000     -1.75501    0.50000
   98     -0.25372    0.00000     -0.25372    0.00000
   99     -0.25065    0.00000     -0.25065    0.00000
  100     -0.24671    0.00000     -0.24671    0.00000
  101     -0.24192    0.00000     -0.24192    0.00000
  102     -0.23270    0.00000     -0.23270    0.00000
  103     -0.11053    0.00000     -0.11053    0.00000
  104     -0.10836    0.00000     -0.10836    0.00000
  105     -0.00604    0.00000     -0.00604    0.00000
  106      0.82667    0.00000      0.82667    0.00000
  107      0.84113    0.00000      0.84113    0.00000
  108      0.92583    0.00000      0.92583    0.00000
  109      0.97726    0.00000      0.97726    0.00000
  110      0.99169    0.00000      0.99169    0.00000
  111      1.39481    0.00000      1.39481    0.00000
  112      2.09538    0.00000      2.09538    0.00000
  113      2.22371    0.00000      2.22371    0.00000
  114      2.22734    0.00000      2.22734    0.00000
  115      2.30022    0.00000      2.30022    0.00000
  116      2.30354    0.00000      2.30354    0.00000
  117      3.06254    0.00000      3.06254    0.00000
  118      3.24881    0.00000      3.24881    0.00000
  119      3.51271    0.00000      3.51271    0.00000
  120      3.51521    0.00000      3.51521    0.00000

Fermi level: -1.75501

Gap: 1.501 eV
Transition (v -> c):
  (s=1, k=0, n=97, [0.00, 0.00, 0.00]) -> (s=0, k=0, n=98, [0.00, 0.00, 0.00])
No difference between direct/indirect transitions

Forces in eV/Ang:
  0 B    -0.03418    0.87030    0.00000
  1 B     0.72327   -0.49116    0.00000
  2 N    -0.34131    0.10037    0.00000
  3 B     0.50040   -0.49658    0.00000
  4 N     0.17729   -0.08333    0.00000
  5 B    -0.03572   -0.00919    0.00000
  6 N    -0.03404    0.17107    0.00000
  7 B    -0.12055    0.64815    0.00000
  8 N    -0.18113   -0.31420    0.00000
  9 B    -0.24929    0.16825    0.00000
 10 N     0.13720    0.31374    0.00000
 11 B    -0.76440   -0.47479    0.00000
 12 N     0.37005    0.08973    0.00000
 13 B    -0.05012   -0.31593    0.00000
 14 N     0.01892    0.11513    0.00000
 15 B    -0.17125   -0.02950    0.00000
 16 N     0.04324    0.00318    0.00000
 17 B    -0.11172   -0.05641    0.00000
 18 N     0.06374   -0.07340    0.00000
 19 B     0.05195    0.16621    0.00000
 20 N    -0.16214   -0.03925    0.00000
 21 B    -0.61746   -0.24811    0.00000
 22 N    -0.17989   -0.09216    0.00000
 23 B    -0.53718   -0.48536    0.00000
 24 N    -0.14897   -0.11042    0.00000
 25 B     0.13382   -0.01552    0.00000
 26 N    -0.02791   -0.00095    0.00000
 27 B    -0.00487    0.07955    0.00000
 28 N     0.00131   -0.10970    0.00000
 29 B    -0.04372    0.17924    0.00000
 30 N     0.16060   -0.03601    0.00000
 31 B     0.00935   -0.01092    0.00000
 32 N    -0.00211   -0.01405    0.00000
 33 B     0.03412   -0.00360    0.00000
 34 N    -0.01686    0.00622    0.00000
 35 B     0.02388    0.01332    0.00000
 36 N     0.05540    0.16099    0.00000
 37 B     0.09152   -0.02617    0.00000
 38 N    -0.04206   -0.08601    0.00000
 39 B     0.20273    0.19430    0.00000
 40 N    -0.11425    0.32391    0.00000
 41 B     0.60750   -0.24431    0.00000
 42 N     0.18907   -0.08002    0.00000
 43 B    -0.02427   -0.00969    0.00000
 44 N     0.02975    0.01376    0.00000
 45 B     0.00031    0.00356    0.00000
 46 N     0.01308    0.18212    0.00000
 47 B     0.08678    0.66661    0.00000
 48 N     0.21586   -0.34482    0.00000

System changes: positions 

Initializing position-dependent things.

Density initialized from wave functions
                                                            
                                                            
                                                            
                                                            
              N     N     N     N     N                     
             B N   B  N  B  N  B  N  B  N                   
              B      B     B     B     B                    
                BN    BN    BN     BN    BN                 
                   N     N     N     N     N                
                  B     B N   B  N  B  N   B N              
                    B     B     B     B     B               
                                                            
                                                            
                                                            
                                                            

Positions:
   0 B     -0.000960    0.136811   20.000000    ( 0.0000,  0.0000,  0.0000)
   1 B     -1.133840    2.093457   20.000000    ( 0.0000,  0.0000,  0.0000)
   2 N     -1.210678    3.558201   20.000000    ( 0.0000,  0.0000,  0.0000)
   3 B     -2.488289    4.305036   20.000000    ( 0.0000,  0.0000,  0.0000)
   4 N     -2.501654    5.758317   20.000000    ( 0.0000,  0.0000,  0.0000)
   5 B     -3.755201    6.492118   20.000000    ( 0.0000,  0.0000,  0.0000)
   6 N     -3.760504    7.946584   20.000000    ( 0.0000,  0.0000,  0.0000)
   7 B     -5.011492    8.684721   20.000000    ( 0.0000,  0.0000,  0.0000)
   8 N     -5.019941   10.164822   20.000000    ( 0.0000,  0.0000,  0.0000)
   9 B      2.511091   -0.005672   20.000000    ( 0.0000,  0.0000,  0.0000)
  10 N      2.436251    1.429235   20.000000    ( 0.0000,  0.0000,  0.0000)
  11 B      1.132360    2.093700   20.000000    ( 0.0000,  0.0000,  0.0000)
  12 N      1.205295    3.558394   20.000000    ( 0.0000,  0.0000,  0.0000)
  13 B     -0.001820    4.338976   20.000000    ( 0.0000,  0.0000,  0.0000)
  14 N     -0.001121    5.777563   20.000000    ( 0.0000,  0.0000,  0.0000)
  15 B     -1.252605    6.496471   20.000000    ( 0.0000,  0.0000,  0.0000)
  16 N     -1.252247    7.941619   20.000000    ( 0.0000,  0.0000,  0.0000)
  17 B     -2.499824    8.662068   20.000000    ( 0.0000,  0.0000,  0.0000)
  18 N     -2.493887   10.106092   20.000000    ( 0.0000,  0.0000,  0.0000)
  19 B      5.003433    0.002244   20.000000    ( 0.0000,  0.0000,  0.0000)
  20 N      4.991620    1.447273   20.000000    ( 0.0000,  0.0000,  0.0000)
  21 B      3.725687    2.160589   20.000000    ( 0.0000,  0.0000,  0.0000)
  22 N      3.750072    3.602632   20.000000    ( 0.0000,  0.0000,  0.0000)
  23 B      2.487540    4.305963   20.000000    ( 0.0000,  0.0000,  0.0000)
  24 N      2.500870    5.760273   20.000000    ( 0.0000,  0.0000,  0.0000)
  25 B      1.251681    6.497567   20.000000    ( 0.0000,  0.0000,  0.0000)
  26 N      1.252681    7.943364   20.000000    ( 0.0000,  0.0000,  0.0000)
  27 B      0.000523    8.665521   20.000000    ( 0.0000,  0.0000,  0.0000)
  28 N      0.001723   10.112929   20.000000    ( 0.0000,  0.0000,  0.0000)
  29 B      7.499031    0.003139   20.000000    ( 0.0000,  0.0000,  0.0000)
  30 N      7.511628    1.447542   20.000000    ( 0.0000,  0.0000,  0.0000)
  31 B      6.251858    2.166914   20.000000    ( 0.0000,  0.0000,  0.0000)
  32 N      6.251759    3.607290   20.000000    ( 0.0000,  0.0000,  0.0000)
  33 B      5.004129    4.328926   20.000000    ( 0.0000,  0.0000,  0.0000)
  34 N      5.005128    5.770548   20.000000    ( 0.0000,  0.0000,  0.0000)
  35 B      3.756051    6.493857   20.000000    ( 0.0000,  0.0000,  0.0000)
  36 N      3.759621    7.949328   20.000000    ( 0.0000,  0.0000,  0.0000)
  37 B      2.500288    8.664094   20.000000    ( 0.0000,  0.0000,  0.0000)
  38 N      2.494814   10.107850   20.000000    ( 0.0000,  0.0000,  0.0000)
  39 B      9.988011   -0.004198   20.000000    ( 0.0000,  0.0000,  0.0000)
  40 N     10.060627    1.429887   20.000000    ( 0.0000,  0.0000,  0.0000)
  41 B      8.775647    2.160912   20.000000    ( 0.0000,  0.0000,  0.0000)
  42 N      8.750849    3.601552   20.000000    ( 0.0000,  0.0000,  0.0000)
  43 B      7.498671    4.328383   20.000000    ( 0.0000,  0.0000,  0.0000)
  44 N      7.496193    5.769207   20.000000    ( 0.0000,  0.0000,  0.0000)
  45 B      6.250949    6.494821   20.000000    ( 0.0000,  0.0000,  0.0000)
  46 N      6.249288    7.945369   20.000000    ( 0.0000,  0.0000,  0.0000)
  47 B      5.011115    8.685948   20.000000    ( 0.0000,  0.0000,  0.0000)
  48 N      5.015981   10.165450   20.000000    ( 0.0000,  0.0000,  0.0000)

Unit cell:
           periodic     x           y           z      points  spacing
  1. axis:    yes   12.500000    0.000000    0.000000    56     0.1933
  2. axis:    yes   -6.250000   10.825318    0.000000    56     0.1933
  3. axis:    yes    0.000000    0.000000   40.000000   200     0.2000

  Lengths:  12.500000  12.500000  40.000000
  Angles:   90.000000  90.000000 120.000000

Effective grid spacing dv^(1/3) = 0.2051

     iter     time        total  log10-change:  magmom
                         energy   eigst   dens
iter:   1 15:40:57  -405.026731        c          +0.0000
iter:   2 15:41:06  -404.990320        c -2.28    +0.0000
iter:   3 15:41:16  -404.888120        c -2.34    -0.0000
iter:   4 15:41:25  -404.884327        c -2.71    +0.0000
iter:   5 15:41:34  -404.881289c       c -3.00    +0.0000
iter:   6 15:41:44  -404.881043c       c -3.29    +0.0000
iter:   7 15:41:53  -404.881063c       c -3.64    +0.0000
iter:   8 15:42:02  -404.881035c       c -3.67    +0.0000
iter:   9 15:42:12  -404.881034c       c -4.32c   +0.0000

Converged after 9 iterations.

Dipole moment: (-29.630333, -9.269941, -0.000000) |e|*Ang

Total magnetic moment: (0.000000, 0.000000, 0.000000)
Local magnetic moments:
   0 B  ( 0.000000,  0.000000,  0.000000)
   1 B  ( 0.000000,  0.000000,  0.000000)
   2 N  ( 0.000000,  0.000000,  0.000000)
   3 B  ( 0.000000,  0.000000,  0.000000)
   4 N  ( 0.000000,  0.000000,  0.000000)
   5 B  ( 0.000000,  0.000000, -0.000000)
   6 N  ( 0.000000,  0.000000, -0.000000)
   7 B  ( 0.000000,  0.000000,  0.000000)
   8 N  ( 0.000000,  0.000000,  0.000000)
   9 B  ( 0.000000,  0.000000, -0.000000)
  10 N  ( 0.000000,  0.000000, -0.000000)
  11 B  ( 0.000000,  0.000000,  0.000000)
  12 N  ( 0.000000,  0.000000,  0.000000)
  13 B  ( 0.000000,  0.000000,  0.000000)
  14 N  ( 0.000000,  0.000000,  0.000000)
  15 B  ( 0.000000,  0.000000,  0.000000)
  16 N  ( 0.000000,  0.000000, -0.000000)
  17 B  ( 0.000000,  0.000000,  0.000000)
  18 N  ( 0.000000,  0.000000, -0.000000)
  19 B  ( 0.000000,  0.000000, -0.000000)
  20 N  ( 0.000000,  0.000000,  0.000000)
  21 B  ( 0.000000,  0.000000, -0.000000)
  22 N  ( 0.000000,  0.000000,  0.000000)
  23 B  ( 0.000000,  0.000000,  0.000000)
  24 N  ( 0.000000,  0.000000,  0.000000)
  25 B  ( 0.000000,  0.000000,  0.000000)
  26 N  ( 0.000000,  0.000000, -0.000000)
  27 B  ( 0.000000,  0.000000,  0.000000)
  28 N  ( 0.000000,  0.000000,  0.000000)
  29 B  ( 0.000000,  0.000000, -0.000000)
  30 N  ( 0.000000,  0.000000, -0.000000)
  31 B  ( 0.000000,  0.000000,  0.000000)
  32 N  ( 0.000000,  0.000000, -0.000000)
  33 B  ( 0.000000,  0.000000, -0.000000)
  34 N  ( 0.000000,  0.000000,  0.000000)
  35 B  ( 0.000000,  0.000000, -0.000000)
  36 N  ( 0.000000,  0.000000, -0.000000)
  37 B  ( 0.000000,  0.000000, -0.000000)
  38 N  ( 0.000000,  0.000000, -0.000000)
  39 B  ( 0.000000,  0.000000,  0.000000)
  40 N  ( 0.000000,  0.000000, -0.000000)
  41 B  ( 0.000000,  0.000000, -0.000000)
  42 N  ( 0.000000,  0.000000, -0.000000)
  43 B  ( 0.000000,  0.000000,  0.000000)
  44 N  ( 0.000000,  0.000000, -0.000000)
  45 B  ( 0.000000,  0.000000,  0.000000)
  46 N  ( 0.000000,  0.000000, -0.000000)
  47 B  ( 0.000000,  0.000000,  0.000000)
  48 N  ( 0.000000,  0.000000, -0.000000)

Energy contributions relative to reference atoms: (reference = -52298.555282)

Kinetic:       +346.512084
Potential:     -357.453648
External:        +0.000000
XC:            -409.448487
Entropy (-ST):   -0.069315
Local:          +15.543675
SIC:             +0.000000
--------------------------
Free energy:   -404.915691
Extrapolated:  -404.881034

Spin contamination: 0.000000 electrons
                   Up                     Down
 Band  Eigenvalues  Occupancy  Eigenvalues  Occupancy
    0    -22.74413    1.00000    -22.74413    1.00000
    1    -22.10307    1.00000    -22.10307    1.00000
    2    -22.04165    1.00000    -22.04165    1.00000
    3    -22.02859    1.00000    -22.02859    1.00000
    4    -22.00469    1.00000    -22.00469    1.00000
    5    -21.98923    1.00000    -21.98923    1.00000
    6    -21.69658    1.00000    -21.69658    1.00000
    7    -20.74669    1.00000    -20.74669    1.00000
    8    -20.74523    1.00000    -20.74523    1.00000
    9    -20.69599    1.00000    -20.69599    1.00000
   10    -20.69292    1.00000    -20.69292    1.00000
   11    -20.63270    1.00000    -20.63270    1.00000
   12    -20.52755    1.00000    -20.52755    1.00000
   13    -20.27725    1.00000    -20.27725    1.00000
   14    -20.27270    1.00000    -20.27270    1.00000
   15    -20.27239    1.00000    -20.27239    1.00000
   16    -20.14725    1.00000    -20.14725    1.00000
   17    -20.14521    1.00000    -20.14521    1.00000
   18    -19.82432    1.00000    -19.82432    1.00000
   19    -19.42226    1.00000    -19.42226    1.00000
   20    -19.42020    1.00000    -19.42020    1.00000
   21    -19.39955    1.00000    -19.39955    1.00000
   22    -19.39541    1.00000    -19.39541    1.00000
   23    -19.19995    1.00000    -19.19995    1.00000
   24    -13.68989    1.00000    -13.68989    1.00000
   25    -13.57002    1.00000    -13.57002    1.00000
   26    -13.53707    1.00000    -13.53707    1.00000
   27    -13.53021    1.00000    -13.53021    1.00000
   28    -13.51889    1.00000    -13.51889    1.00000
   29    -13.46666    1.00000    -13.46666    1.00000
   30    -13.46587    1.00000    -13.46587    1.00000
   31    -13.20949    1.00000    -13.20949    1.00000
   32    -13.20328    1.00000    -13.20328    1.00000
   33    -13.13774    1.00000    -13.13774    1.00000
   34    -12.86821    1.00000    -12.86821    1.00000
   35    -12.86044    1.00000    -12.86044    1.00000
   36    -12.41753    1.00000    -12.41753    1.00000
   37    -11.60908    1.00000    -11.60908    1.00000
   38    -11.56142    1.00000    -11.56142    1.00000
   39    -11.55760    1.00000    -11.55760    1.00000
   40    -11.34496    1.00000    -11.34496    1.00000
   41    -11.34180    1.00000    -11.34180    1.00000
   42    -11.11161    1.00000    -11.11161    1.00000
   43    -11.10968    1.00000    -11.10968    1.00000
   44    -11.09982    1.00000    -11.09982    1.00000
   45    -11.04152    1.00000    -11.04152    1.00000
   46    -10.68876    1.00000    -10.68876    1.00000
   47    -10.68383    1.00000    -10.68383    1.00000
   48    -10.23260    1.00000    -10.23260    1.00000
   49    -10.00046    1.00000    -10.00046    1.00000
   50     -9.97907    1.00000     -9.97907    1.00000
   51     -9.85836    1.00000     -9.85836    1.00000
   52     -9.85333    1.00000     -9.85333    1.00000
   53     -9.74029    1.00000     -9.74029    1.00000
   54     -9.63559    1.00000     -9.63559    1.00000
   55     -9.63315    1.00000     -9.63315    1.00000
   56     -9.32783    1.00000     -9.32783    1.00000
   57     -9.27227    1.00000     -9.27227    1.00000
   58     -9.26203    1.00000     -9.26203    1.00000
   59     -9.22624    1.00000     -9.22624    1.00000
   60     -9.21453    1.00000     -9.21453    1.00000
   61     -9.14739    1.00000     -9.14739    1.00000
   62     -9.09766    1.00000     -9.09766    1.00000
   63     -9.09353    1.00000     -9.09353    1.00000
   64     -9.04067    1.00000     -9.04067    1.00000
   65     -9.03686    1.00000     -9.03686    1.00000
   66     -9.00385    1.00000     -9.00385    1.00000
   67     -8.96053    1.00000     -8.96053    1.00000
   68     -8.95556    1.00000     -8.95556    1.00000
   69     -8.94226    1.00000     -8.94226    1.00000
   70     -8.86867    1.00000     -8.86867    1.00000
   71     -8.11833    1.00000     -8.11833    1.00000
   72     -8.10930    1.00000     -8.10930    1.00000
   73     -7.67441    1.00000     -7.67441    1.00000
   74     -7.66313    1.00000     -7.66313    1.00000
   75     -7.65563    1.00000     -7.65563    1.00000
   76     -7.44637    1.00000     -7.44637    1.00000
   77     -7.44565    1.00000     -7.44565    1.00000
   78     -7.43076    1.00000     -7.43076    1.00000
   79     -7.39473    1.00000     -7.39473    1.00000
   80     -7.39115    1.00000     -7.39115    1.00000
   81     -7.35141    1.00000     -7.35141    1.00000
   82     -7.17359    1.00000     -7.17359    1.00000
   83     -7.16950    1.00000     -7.16950    1.00000
   84     -6.74495    1.00000     -6.74495    1.00000
   85     -6.74113    1.00000     -6.74113    1.00000
   86     -6.73759    1.00000     -6.73759    1.00000
   87     -6.64708    1.00000     -6.64708    1.00000
   88     -6.64164    1.00000     -6.64164    1.00000
   89     -6.62066    1.00000     -6.62066    1.00000
   90     -6.61810    1.00000     -6.61810    1.00000
   91     -6.12548    1.00000     -6.12548    1.00000
   92     -5.44412    1.00000     -5.44412    1.00000
   93     -5.44342    1.00000     -5.44342    1.00000
   94     -5.40815    1.00000     -5.40815    1.00000
   95     -5.40676    1.00000     -5.40676    1.00000
   96     -5.30161    1.00000     -5.30161    1.00000
   97     -2.05517    0.50000     -2.05517    0.50000
   98     -0.27018    0.00000     -0.27018    0.00000
   99     -0.26931    0.00000     -0.26931    0.00000
  100     -0.23510    0.00000     -0.23510    0.00000
  101     -0.22576    0.00000     -0.22576    0.00000
  102     -0.19670    0.00000     -0.19670    0.00000
  103     -0.09806    0.00000     -0.09806    0.00000
  104     -0.09551    0.00000     -0.09551    0.00000
  105     -0.02623    0.00000     -0.02623    0.00000
  106      0.82259    0.00000      0.82259    0.00000
  107      0.83643    0.00000      0.83643    0.00000
  108      0.92634    0.00000      0.92634    0.00000
  109      0.96055    0.00000      0.96055    0.00000
  110      0.97680    0.00000      0.97680    0.00000
  111      1.35471    0.00000      1.35471    0.00000
  112      2.09263    0.00000      2.09263    0.00000
  113      2.22205    0.00000      2.22205    0.00000
  114      2.22372    0.00000      2.22372    0.00000
  115      2.29114    0.00000      2.29114    0.00000
  116      2.29389    0.00000      2.29389    0.00000
  117      3.02792    0.00000      3.02792    0.00000
  118      3.24978    0.00000      3.24978    0.00000
  119      3.49856    0.00000      3.49856    0.00000
  120      3.50159    0.00000      3.50159    0.00000

Fermi level: -2.05517

Gap: 0.000 eV
Transition (v -> c):
  (s=0, k=0, n=97, [0.00, 0.00, 0.00]) -> (s=1, k=0, n=97, [0.00, 0.00, 0.00])
No difference between direct/indirect transitions

Forces in eV/Ang:
  0 B    -0.01816    0.07600    0.00000
  1 B     0.10157   -0.00458    0.00000
  2 N    -0.28348    0.17836    0.00000
  3 B     0.38413   -0.36118    0.00000
  4 N     0.13893   -0.04559    0.00000
  5 B     0.11418    0.06480    0.00000
  6 N    -0.03415    0.13443    0.00000
  7 B    -0.12118    0.48634    0.00000
  8 N    -0.12203   -0.47345    0.00000
  9 B    -0.42694    0.22826    0.00000
 10 N     0.29653    0.29876    0.00000
 11 B    -0.12268   -0.00503    0.00000
 12 N     0.35831    0.19536    0.00000
 13 B    -0.01518   -0.38893    0.00000
 14 N     0.01126    0.01651    0.00000
 15 B    -0.06483   -0.08993    0.00000
 16 N     0.02800   -0.01403    0.00000
 17 B    -0.13620    0.00008    0.00000
 18 N    -0.03851   -0.03344    0.00000
 19 B    -0.08043    0.12266    0.00000
 20 N    -0.15751    0.00205    0.00000
 21 B    -0.51312   -0.16329    0.00000
 22 N    -0.19711   -0.06330    0.00000
 23 B    -0.40339   -0.37661    0.00000
 24 N    -0.13090   -0.06048    0.00000
 25 B     0.06129   -0.09238    0.00000
 26 N    -0.02304   -0.02352    0.00000
 27 B    -0.00638   -0.00042    0.00000
 28 N    -0.01177   -0.11478    0.00000
 29 B     0.07048    0.12406    0.00000
 30 N     0.14013   -0.00922    0.00000
 31 B    -0.00611   -0.10880    0.00000
 32 N    -0.01933    0.00854    0.00000
 33 B    -0.19549   -0.12921    0.00000
 34 N    -0.05586    0.04297    0.00000
 35 B    -0.11982    0.06553    0.00000
 36 N     0.04242    0.10666    0.00000
 37 B     0.12765    0.00208    0.00000
 38 N     0.02857   -0.04849    0.00000
 39 B     0.42323    0.23452    0.00000
 40 N    -0.26471    0.28372    0.00000
 41 B     0.49863   -0.15677    0.00000
 42 N     0.18122   -0.05423    0.00000
 43 B     0.18618   -0.12752    0.00000
 44 N     0.04934    0.05699    0.00000
 45 B    -0.00111    0.22782    0.00000
 46 N     0.00344    0.10749    0.00000
 47 B     0.10845    0.47870    0.00000
 48 N     0.15966   -0.47475    0.00000

System changes: positions 

Initializing position-dependent things.

Density initialized from wave functions
                                                            
                                                            
                                                            
                                                            
              N     N     N     N     N                     
             B N   B  N  B  N  B  N  B  N                   
              B      B     B     B     B                    
                BN    BN    BN     BN    BN                 
                   N     N     N     N     N                
                  B     B N   B  N  B  N   B N              
                    B     B     B     B     B               
                                                            
                                                            
                                                            
                                                            

Positions:
   0 B     -0.001271    0.150202   20.000000    ( 0.0000,  0.0000,  0.0000)
   1 B     -1.121698    2.087094   20.000000    ( 0.0000,  0.0000,  0.0000)
   2 N     -1.210327    3.555239   20.000000    ( 0.0000,  0.0000,  0.0000)
   3 B     -2.482337    4.298123   20.000000    ( 0.0000,  0.0000,  0.0000)
   4 N     -2.499795    5.755636   20.000000    ( 0.0000,  0.0000,  0.0000)
   5 B     -3.753615    6.492942   20.000000    ( 0.0000,  0.0000,  0.0000)
   6 N     -3.762499    7.949756   20.000000    ( 0.0000,  0.0000,  0.0000)
   7 B     -5.014361    8.692877   20.000000    ( 0.0000,  0.0000,  0.0000)
   8 N     -5.024127   10.165048   20.000000    ( 0.0000,  0.0000,  0.0000)
   9 B      2.506136   -0.003096   20.000000    ( 0.0000,  0.0000,  0.0000)
  10 N      2.433246    1.431739   20.000000    ( 0.0000,  0.0000,  0.0000)
  11 B      1.119823    2.087313   20.000000    ( 0.0000,  0.0000,  0.0000)
  12 N      1.205578    3.555794   20.000000    ( 0.0000,  0.0000,  0.0000)
  13 B     -0.002119    4.334790   20.000000    ( 0.0000,  0.0000,  0.0000)
  14 N     -0.001118    5.777095   20.000000    ( 0.0000,  0.0000,  0.0000)
  15 B     -1.253627    6.495486   20.000000    ( 0.0000,  0.0000,  0.0000)
  16 N     -1.252281    7.941719   20.000000    ( 0.0000,  0.0000,  0.0000)
  17 B     -2.501578    8.661938   20.000000    ( 0.0000,  0.0000,  0.0000)
  18 N     -2.494868   10.106510   20.000000    ( 0.0000,  0.0000,  0.0000)
  19 B      5.002680    0.004010   20.000000    ( 0.0000,  0.0000,  0.0000)
  20 N      4.988002    1.448009   20.000000    ( 0.0000,  0.0000,  0.0000)
  21 B      3.716724    2.158483   20.000000    ( 0.0000,  0.0000,  0.0000)
  22 N      3.746628    3.600652   20.000000    ( 0.0000,  0.0000,  0.0000)
  23 B      2.481335    4.298828   20.000000    ( 0.0000,  0.0000,  0.0000)
  24 N      2.498957    5.757638   20.000000    ( 0.0000,  0.0000,  0.0000)
  25 B      1.252716    6.496581   20.000000    ( 0.0000,  0.0000,  0.0000)
  26 N      1.252790    7.943535   20.000000    ( 0.0000,  0.0000,  0.0000)
  27 B      0.000490    8.665658   20.000000    ( 0.0000,  0.0000,  0.0000)
  28 N      0.001714   10.112516   20.000000    ( 0.0000,  0.0000,  0.0000)
  29 B      7.499813    0.004960   20.000000    ( 0.0000,  0.0000,  0.0000)
  30 N      7.515380    1.448127   20.000000    ( 0.0000,  0.0000,  0.0000)
  31 B      6.251868    2.165335   20.000000    ( 0.0000,  0.0000,  0.0000)
  32 N      6.251675    3.607200   20.000000    ( 0.0000,  0.0000,  0.0000)
  33 B      5.001120    4.326794   20.000000    ( 0.0000,  0.0000,  0.0000)
  34 N      5.004850    5.770851   20.000000    ( 0.0000,  0.0000,  0.0000)
  35 B      3.754501    6.494756   20.000000    ( 0.0000,  0.0000,  0.0000)
  36 N      3.761601    7.952403   20.000000    ( 0.0000,  0.0000,  0.0000)
  37 B      2.502012    8.664077   20.000000    ( 0.0000,  0.0000,  0.0000)
  38 N      2.495686   10.108260   20.000000    ( 0.0000,  0.0000,  0.0000)
  39 B      9.992943   -0.001457   20.000000    ( 0.0000,  0.0000,  0.0000)
  40 N     10.063832    1.432215   20.000000    ( 0.0000,  0.0000,  0.0000)
  41 B      8.784509    2.158919   20.000000    ( 0.0000,  0.0000,  0.0000)
  42 N      8.754084    3.599556   20.000000    ( 0.0000,  0.0000,  0.0000)
  43 B      7.501714    4.326258   20.000000    ( 0.0000,  0.0000,  0.0000)
  44 N      7.496482    5.769537   20.000000    ( 0.0000,  0.0000,  0.0000)
  45 B      6.251009    6.498557   20.000000    ( 0.0000,  0.0000,  0.0000)
  46 N      6.249221    7.948327   20.000000    ( 0.0000,  0.0000,  0.0000)
  47 B      5.013833    8.694023   20.000000    ( 0.0000,  0.0000,  0.0000)
  48 N      5.020290   10.165770   20.000000    ( 0.0000,  0.0000,  0.0000)

Unit cell:
           periodic     x           y           z      points  spacing
[...]
  20 N      4.981207    1.448367   20.000000    ( 0.0000,  0.0000,  0.0000)
  21 B      3.706620    2.155697   20.000000    ( 0.0000,  0.0000,  0.0000)
  22 N      3.735308    3.595623   20.000000    ( 0.0000,  0.0000,  0.0000)
  23 B      2.472669    4.293381   20.000000    ( 0.0000,  0.0000,  0.0000)
  24 N      2.494644    5.752420   20.000000    ( 0.0000,  0.0000,  0.0000)
  25 B      1.251434    6.492570   20.000000    ( 0.0000,  0.0000,  0.0000)
  26 N      1.255059    7.941472   20.000000    ( 0.0000,  0.0000,  0.0000)
  27 B      0.000322    8.664596   20.000000    ( 0.0000,  0.0000,  0.0000)
  28 N      0.001159   10.113578   20.000000    ( 0.0000,  0.0000,  0.0000)
  29 B      7.504155    0.005872   20.000000    ( 0.0000,  0.0000,  0.0000)
  30 N      7.519741    1.448435   20.000000    ( 0.0000,  0.0000,  0.0000)
  31 B      6.250895    2.162384   20.000000    ( 0.0000,  0.0000,  0.0000)
  32 N      6.251044    3.605975   20.000000    ( 0.0000,  0.0000,  0.0000)
  33 B      4.993636    4.323836   20.000000    ( 0.0000,  0.0000,  0.0000)
  34 N      5.001351    5.772206   20.000000    ( 0.0000,  0.0000,  0.0000)
  35 B      3.749648    6.496487   20.000000    ( 0.0000,  0.0000,  0.0000)
  36 N      3.764283    7.956473   20.000000    ( 0.0000,  0.0000,  0.0000)
  37 B      2.505491    8.666820   20.000000    ( 0.0000,  0.0000,  0.0000)
  38 N      2.504192   10.112174   20.000000    ( 0.0000,  0.0000,  0.0000)
  39 B     10.003214    0.002608   20.000000    ( 0.0000,  0.0000,  0.0000)
  40 N     10.069961    1.435120   20.000000    ( 0.0000,  0.0000,  0.0000)
  41 B      8.793486    2.155927   20.000000    ( 0.0000,  0.0000,  0.0000)
  42 N      8.764272    3.595039   20.000000    ( 0.0000,  0.0000,  0.0000)
  43 B      7.508012    4.323525   20.000000    ( 0.0000,  0.0000,  0.0000)
  44 N      7.499530    5.771261   20.000000    ( 0.0000,  0.0000,  0.0000)
  45 B      6.250701    6.503831   20.000000    ( 0.0000,  0.0000,  0.0000)
  46 N      6.248993    7.956668   20.000000    ( 0.0000,  0.0000,  0.0000)
  47 B      5.015567    8.700798   20.000000    ( 0.0000,  0.0000,  0.0000)
  48 N      5.025238   10.165726   20.000000    ( 0.0000,  0.0000,  0.0000)

Unit cell:
           periodic     x           y           z      points  spacing
  1. axis:    yes   12.500000    0.000000    0.000000    56     0.1933
  2. axis:    yes   -6.250000   10.825318    0.000000    56     0.1933
  3. axis:    yes    0.000000    0.000000   40.000000   200     0.2000

  Lengths:  12.500000  12.500000  40.000000
  Angles:   90.000000  90.000000 120.000000

Effective grid spacing dv^(1/3) = 0.2051

     iter     time        total  log10-change:  magmom
                         energy   eigst   dens
iter:   1 15:46:36  -404.935480        c          -0.0000
iter:   2 15:46:45  -404.935367        c -3.47    -0.0000
iter:   3 15:46:55  -404.935100c       c -3.54    -0.0000
iter:   4 15:47:04  -404.935088c       c -3.94    -0.0000
iter:   5 15:47:14  -404.935087c       c -4.42c   -0.0000

Converged after 5 iterations.

Dipole moment: (-31.135360, -10.725717, -0.000000) |e|*Ang

Total magnetic moment: (0.000000, 0.000000, -0.000000)
Local magnetic moments:
   0 B  ( 0.000000,  0.000000, -0.000000)
   1 B  ( 0.000000,  0.000000, -0.000000)
   2 N  ( 0.000000,  0.000000, -0.000000)
   3 B  ( 0.000000,  0.000000,  0.000000)
   4 N  ( 0.000000,  0.000000,  0.000000)
   5 B  ( 0.000000,  0.000000, -0.000000)
   6 N  ( 0.000000,  0.000000,  0.000000)
   7 B  ( 0.000000,  0.000000, -0.000000)
   8 N  ( 0.000000,  0.000000, -0.000000)
   9 B  ( 0.000000,  0.000000, -0.000000)
  10 N  ( 0.000000,  0.000000, -0.000000)
  11 B  ( 0.000000,  0.000000, -0.000000)
  12 N  ( 0.000000,  0.000000, -0.000000)
  13 B  ( 0.000000,  0.000000, -0.000000)
  14 N  ( 0.000000,  0.000000,  0.000000)
  15 B  ( 0.000000,  0.000000, -0.000000)
  16 N  ( 0.000000,  0.000000,  0.000000)
  17 B  ( 0.000000,  0.000000, -0.000000)
  18 N  ( 0.000000,  0.000000,  0.000000)
  19 B  ( 0.000000,  0.000000, -0.000000)
  20 N  ( 0.000000,  0.000000, -0.000000)
  21 B  ( 0.000000,  0.000000, -0.000000)
  22 N  ( 0.000000,  0.000000, -0.000000)
  23 B  ( 0.000000,  0.000000, -0.000000)
  24 N  ( 0.000000,  0.000000, -0.000000)
  25 B  ( 0.000000,  0.000000, -0.000000)
  26 N  ( 0.000000,  0.000000, -0.000000)
  27 B  ( 0.000000,  0.000000,  0.000000)
  28 N  ( 0.000000,  0.000000,  0.000000)
  29 B  ( 0.000000,  0.000000, -0.000000)
  30 N  ( 0.000000,  0.000000,  0.000000)
  31 B  ( 0.000000,  0.000000, -0.000000)
  32 N  ( 0.000000,  0.000000,  0.000000)
  33 B  ( 0.000000,  0.000000,  0.000000)
  34 N  ( 0.000000,  0.000000, -0.000000)
  35 B  ( 0.000000,  0.000000,  0.000000)
  36 N  ( 0.000000,  0.000000, -0.000000)
  37 B  ( 0.000000,  0.000000,  0.000000)
  38 N  ( 0.000000,  0.000000, -0.000000)
  39 B  ( 0.000000,  0.000000, -0.000000)
  40 N  ( 0.000000,  0.000000, -0.000000)
  41 B  ( 0.000000,  0.000000, -0.000000)
  42 N  ( 0.000000,  0.000000, -0.000000)
  43 B  ( 0.000000,  0.000000,  0.000000)
  44 N  ( 0.000000,  0.000000, -0.000000)
  45 B  ( 0.000000,  0.000000,  0.000000)
  46 N  ( 0.000000,  0.000000, -0.000000)
  47 B  ( 0.000000,  0.000000,  0.000000)
  48 N  ( 0.000000,  0.000000, -0.000000)

Energy contributions relative to reference atoms: (reference = -52298.555282)

Kinetic:       +344.155859
Potential:     -355.620749
External:        +0.000000
XC:            -409.005344
Entropy (-ST):   -0.069315
Local:          +15.569805
SIC:             +0.000000
--------------------------
Free energy:   -404.969744
Extrapolated:  -404.935087

Spin contamination: 0.000000 electrons
                   Up                     Down
 Band  Eigenvalues  Occupancy  Eigenvalues  Occupancy
    0    -22.71721    1.00000    -22.71721    1.00000
    1    -22.03821    1.00000    -22.03821    1.00000
    2    -22.03417    1.00000    -22.03417    1.00000
    3    -22.02298    1.00000    -22.02298    1.00000
    4    -21.99789    1.00000    -21.99789    1.00000
    5    -21.98532    1.00000    -21.98532    1.00000
    6    -21.75311    1.00000    -21.75311    1.00000
    7    -20.75054    1.00000    -20.75054    1.00000
    8    -20.74840    1.00000    -20.74840    1.00000
    9    -20.68154    1.00000    -20.68154    1.00000
   10    -20.67824    1.00000    -20.67824    1.00000
   11    -20.63102    1.00000    -20.63102    1.00000
   12    -20.47406    1.00000    -20.47406    1.00000
   13    -20.25278    1.00000    -20.25278    1.00000
   14    -20.24869    1.00000    -20.24869    1.00000
   15    -20.24540    1.00000    -20.24540    1.00000
   16    -20.17365    1.00000    -20.17365    1.00000
   17    -20.17190    1.00000    -20.17190    1.00000
   18    -19.79831    1.00000    -19.79831    1.00000
   19    -19.39604    1.00000    -19.39604    1.00000
   20    -19.39453    1.00000    -19.39453    1.00000
   21    -19.36346    1.00000    -19.36346    1.00000
   22    -19.36006    1.00000    -19.36006    1.00000
   23    -19.27566    1.00000    -19.27566    1.00000
   24    -13.74050    1.00000    -13.74050    1.00000
   25    -13.54624    1.00000    -13.54624    1.00000
   26    -13.53955    1.00000    -13.53955    1.00000
   27    -13.52079    1.00000    -13.52079    1.00000
   28    -13.49023    1.00000    -13.49023    1.00000
   29    -13.43500    1.00000    -13.43500    1.00000
   30    -13.43330    1.00000    -13.43330    1.00000
   31    -13.17364    1.00000    -13.17364    1.00000
   32    -13.17043    1.00000    -13.17043    1.00000
   33    -13.15816    1.00000    -13.15816    1.00000
   34    -12.91078    1.00000    -12.91078    1.00000
   35    -12.90738    1.00000    -12.90738    1.00000
   36    -12.43599    1.00000    -12.43599    1.00000
   37    -11.59114    1.00000    -11.59114    1.00000
   38    -11.55550    1.00000    -11.55550    1.00000
   39    -11.55429    1.00000    -11.55429    1.00000
   40    -11.36439    1.00000    -11.36439    1.00000
   41    -11.36069    1.00000    -11.36069    1.00000
   42    -11.12039    1.00000    -11.12039    1.00000
   43    -11.11546    1.00000    -11.11546    1.00000
   44    -11.04533    1.00000    -11.04533    1.00000
   45    -11.01111    1.00000    -11.01111    1.00000
   46    -10.68581    1.00000    -10.68581    1.00000
   47    -10.68207    1.00000    -10.68207    1.00000
   48    -10.21105    1.00000    -10.21105    1.00000
   49    -10.01987    1.00000    -10.01987    1.00000
   50     -9.97165    1.00000     -9.97165    1.00000
   51     -9.85314    1.00000     -9.85314    1.00000
   52     -9.84502    1.00000     -9.84502    1.00000
   53     -9.72285    1.00000     -9.72285    1.00000
   54     -9.61954    1.00000     -9.61954    1.00000
   55     -9.61885    1.00000     -9.61885    1.00000
   56     -9.25933    1.00000     -9.25933    1.00000
   57     -9.25639    1.00000     -9.25639    1.00000
   58     -9.25135    1.00000     -9.25135    1.00000
   59     -9.23487    1.00000     -9.23487    1.00000
   60     -9.22336    1.00000     -9.22336    1.00000
   61     -9.10076    1.00000     -9.10076    1.00000
   62     -9.06155    1.00000     -9.06155    1.00000
   63     -9.05997    1.00000     -9.05997    1.00000
   64     -9.05855    1.00000     -9.05855    1.00000
   65     -9.00471    1.00000     -9.00471    1.00000
   66     -9.00107    1.00000     -9.00107    1.00000
   67     -8.96834    1.00000     -8.96834    1.00000
   68     -8.96548    1.00000     -8.96548    1.00000
   69     -8.91797    1.00000     -8.91797    1.00000
   70     -8.90874    1.00000     -8.90874    1.00000
   71     -8.10615    1.00000     -8.10615    1.00000
   72     -8.10178    1.00000     -8.10178    1.00000
   73     -7.65650    1.00000     -7.65650    1.00000
   74     -7.65157    1.00000     -7.65157    1.00000
   75     -7.64515    1.00000     -7.64515    1.00000
   76     -7.44516    1.00000     -7.44516    1.00000
   77     -7.44208    1.00000     -7.44208    1.00000
   78     -7.43685    1.00000     -7.43685    1.00000
   79     -7.38506    1.00000     -7.38506    1.00000
   80     -7.38473    1.00000     -7.38473    1.00000
   81     -7.38376    1.00000     -7.38376    1.00000
   82     -7.35634    1.00000     -7.35634    1.00000
   83     -7.12376    1.00000     -7.12376    1.00000
   84     -6.72894    1.00000     -6.72894    1.00000
   85     -6.72619    1.00000     -6.72619    1.00000
   86     -6.72376    1.00000     -6.72376    1.00000
   87     -6.63787    1.00000     -6.63787    1.00000
   88     -6.63510    1.00000     -6.63510    1.00000
   89     -6.61451    1.00000     -6.61451    1.00000
   90     -6.60968    1.00000     -6.60968    1.00000
   91     -6.11089    1.00000     -6.11089    1.00000
   92     -5.42575    1.00000     -5.42575    1.00000
   93     -5.42527    1.00000     -5.42527    1.00000
   94     -5.37871    1.00000     -5.37871    1.00000
   95     -5.37668    1.00000     -5.37668    1.00000
   96     -5.36100    1.00000     -5.36100    1.00000
   97     -2.16399    0.50000     -2.16399    0.50000
   98     -0.28315    0.00000     -0.28315    0.00000
   99     -0.28314    0.00000     -0.28314    0.00000
  100     -0.28242    0.00000     -0.28242    0.00000
  101     -0.26199    0.00000     -0.26199    0.00000
  102     -0.18184    0.00000     -0.18184    0.00000
  103     -0.10890    0.00000     -0.10890    0.00000
  104     -0.10766    0.00000     -0.10766    0.00000
  105     -0.00804    0.00000     -0.00804    0.00000
  106      0.83322    0.00000      0.83322    0.00000
  107      0.84237    0.00000      0.84237    0.00000
  108      0.93183    0.00000      0.93183    0.00000
  109      0.95897    0.00000      0.95897    0.00000
  110      0.96645    0.00000      0.96645    0.00000
  111      1.32717    0.00000      1.32717    0.00000
  112      2.12230    0.00000      2.12230    0.00000
  113      2.22332    0.00000      2.22332    0.00000
  114      2.22528    0.00000      2.22528    0.00000
  115      2.27013    0.00000      2.27013    0.00000
  116      2.27162    0.00000      2.27162    0.00000
  117      3.01354    0.00000      3.01354    0.00000
  118      3.26365    0.00000      3.26365    0.00000
  119      3.50304    0.00000      3.50304    0.00000
  120      3.50588    0.00000      3.50588    0.00000

Fermi level: -2.16399

Gap: 1.881 eV
Transition (v -> c):
  (s=0, k=0, n=97, [0.00, 0.00, 0.00]) -> (s=1, k=0, n=98, [0.00, 0.00, 0.00])
No difference between direct/indirect transitions

Forces in eV/Ang:
  0 B    -0.00238   -0.02288    0.00000
  1 B     0.01621    0.00438    0.00000
  2 N     0.01279   -0.00798    0.00000
  3 B    -0.00174    0.02382    0.00000
  4 N    -0.00016    0.01209    0.00000
  5 B     0.00368   -0.00019    0.00000
  6 N     0.00870   -0.00511    0.00000
  7 B     0.00879   -0.02655    0.00000
  8 N    -0.00540    0.00780    0.00000
  9 B     0.00127   -0.00228    0.00000
 10 N    -0.03768   -0.00555    0.00000
 11 B    -0.01699    0.00902    0.00000
 12 N    -0.01390   -0.00849    0.00000
 13 B     0.00230    0.01764    0.00000
 14 N    -0.00485   -0.00471    0.00000
 15 B     0.00770    0.00018    0.00000
 16 N    -0.00615    0.00242    0.00000
 17 B    -0.00018    0.01514    0.00000
 18 N    -0.01904    0.00660    0.00000
 19 B    -0.01188   -0.01135    0.00000
 20 N     0.00676   -0.01037    0.00000
 21 B     0.00328   -0.00412    0.00000
 22 N    -0.01139   -0.00335    0.00000
 23 B    -0.00269    0.02314    0.00000
 24 N    -0.00845    0.01361    0.00000
 25 B    -0.01416   -0.00269    0.00000
 26 N    -0.00024    0.00183    0.00000
 27 B    -0.00415   -0.00965    0.00000
 28 N    -0.00186   -0.00157    0.00000
 29 B    -0.00047   -0.01229    0.00000
 30 N    -0.01745   -0.00882    0.00000
 31 B    -0.00753    0.00673    0.00000
 32 N    -0.00374    0.00636    0.00000
 33 B    -0.01149    0.00077    0.00000
 34 N    -0.00286   -0.00805    0.00000
 35 B    -0.00905   -0.00635    0.00000
 36 N    -0.01742   -0.00749    0.00000
 37 B    -0.00616    0.00673    0.00000
 38 N     0.00824    0.00514    0.00000
 39 B    -0.00651   -0.00571    0.00000
 40 N     0.02789   -0.00789    0.00000
 41 B    -0.01571   -0.00259    0.00000
 42 N    -0.00113   -0.00264    0.00000
 43 B    -0.00201    0.00322    0.00000
 44 N    -0.00657   -0.00729    0.00000
 45 B    -0.00519   -0.02235    0.00000
 46 N    -0.00505   -0.01583    0.00000
 47 B    -0.01700   -0.03105    0.00000
 48 N     0.00004    0.01084    0.00000

Writing to /Users/denniswayo/gpaw-DFT/emitter2chip/hBN_5x5_VN/hBN_5x5_VN_lcao.gpw (mode='all')

Timing:                                       incl.     excl.
--------------------------------------------------------------------
Basic WFS set positions:                      0.027     0.007   0.0% |
 Redistribute:                                0.020     0.020   0.0% |
Basis functions set positions:                1.515     1.515   0.2% |
Forces:                                     140.541     1.040   0.1% |
 LCAO forces:                               139.500     0.041   0.0% |
  Atomic Hamiltonian force:                   2.738     2.738   0.4% |
  Initial:                                    0.164     0.000   0.0% |
   Get density matrix:                        0.164     0.164   0.0% |
  Paw correction:                             2.739     2.739   0.4% |
  Potential:                                126.283   126.283  17.1% |------|
  TCI derivative:                             7.535     7.535   1.0% |
  Wait for sum:                               0.000     0.000   0.0% |
LCAO WFS Initialize:                         47.152     0.423   0.1% |
 Density initialized from wave functions:    15.100     1.066   0.1% |
  Calculate density matrix:                   0.098     0.098   0.0% |
  Construct density:                         13.936    13.936   1.9% ||
  Symmetrize density:                         0.000     0.000   0.0% |
 Hamiltonian:                                31.629     0.078   0.0% |
  Atomic:                                     9.535     0.024   0.0% |
   XC Correction:                             9.511     9.511   1.3% ||
  Calculate atomic Hamiltonians:              0.109     0.109   0.0% |
  Communicate:                                0.000     0.000   0.0% |
  Hartree integrate/restrict:                 0.393     0.393   0.1% |
  Initialize Hamiltonian:                     0.000     0.000   0.0% |
  Poisson:                                    4.290     0.385   0.1% |
   Communicate from 1D:                       0.471     0.471   0.1% |
   Communicate from 2D:                       0.244     0.244   0.0% |
   Communicate to 1D:                         0.237     0.237   0.0% |
   Communicate to 2D:                         0.972     0.972   0.1% |
   FFT 1D:                                    0.495     0.495   0.1% |
   FFT 2D:                                    1.486     1.486   0.2% |
  XC 3D grid:                                17.122    17.122   2.3% ||
  vbar:                                       0.102     0.102   0.0% |
P tci:                                        3.922     3.922   0.5% |
Redistribute:                                 0.001     0.001   0.0% |
SCF-cycle:                                  533.964     0.197   0.0% |
 Density:                                   119.002     0.001   0.0% |
  Atomic density matrices:                    0.223     0.223   0.0% |
  Mix:                                       10.543    10.543   1.4% ||
  Multipole moments:                          0.029     0.029   0.0% |
  Normalize:                                  0.029     0.029   0.0% |
  Pseudo density:                           108.177     0.154   0.0% |
   Calculate density matrix:                  0.596     0.596   0.1% |
   Construct density:                       107.423   107.423  14.6% |-----|
   Symmetrize density:                        0.004     0.004   0.0% |
 Hamiltonian:                               208.350     0.400   0.1% |
  Atomic:                                    64.474     0.156   0.0% |
   XC Correction:                            64.318    64.318   8.7% |--|
  Calculate atomic Hamiltonians:              0.730     0.730   0.1% |
  Communicate:                                0.000     0.000   0.0% |
  Hartree integrate/restrict:                 2.511     2.511   0.3% |
  Poisson:                                   28.228     2.234   0.3% |
   Communicate from 1D:                       2.927     2.927   0.4% |
   Communicate from 2D:                       1.572     1.572   0.2% |
   Communicate to 1D:                         1.707     1.707   0.2% |
   Communicate to 2D:                         6.220     6.220   0.8% |
   FFT 1D:                                    3.317     3.317   0.4% |
   FFT 2D:                                   10.251    10.251   1.4% ||
  XC 3D grid:                               110.699   110.699  15.0% |-----|
  vbar:                                       1.309     1.309   0.2% |
 LCAO eigensolver:                          206.415     0.084   0.0% |
  Calculate projections:                      0.891     0.891   0.1% |
  DenseAtomicCorrection:                      4.253     4.253   0.6% |
  Distribute overlap matrix:                  0.003     0.003   0.0% |
  Orbital Layouts:                           24.744    24.744   3.4% ||
  Potential matrix:                         176.441   176.441  23.9% |---------|
ST tci:                                       1.118     1.118   0.2% |
Set symmetry:                                 0.000     0.000   0.0% |
TCI: Evaluate splines:                        0.140     0.140   0.0% |
mktci:                                        0.119     0.119   0.0% |
Other:                                        9.250     9.250   1.3% ||
--------------------------------------------------------------------
Total:                                                737.748 100.0%

Memory usage: 1.89 GiB
Date: Mon Dec 15 15:47:32 2025
