
  ___ ___ ___ _ _ _  
 |   |   |_  | | | | 
 | | | | | . | | | | 
 |__ |  _|___|_____|  25.1.0
 |___|_|             

User:   denniswayo@Delas-MacBook-Pro.local
Date:   Mon Dec 15 14:07:20 2025
Arch:   x86_64
Pid:    37091
CWD:    /Users/denniswayo/gpaw-DFT/emitter2chip
Python: 3.9.22
gpaw:   /Users/denniswayo/miniforge-x86_64/envs/gpaw-tddft-legacy/lib/python3.9/site-packages/gpaw
_gpaw:  /Users/denniswayo/miniforge-x86_64/envs/gpaw-tddft-legacy/lib/python3.9/site-packages/
        _gpaw.cpython-39-darwin.so
ase:    /Users/denniswayo/miniforge-x86_64/envs/gpaw-tddft-legacy/lib/python3.9/site-packages/ase (version 3.25.0)
numpy:  /Users/denniswayo/miniforge-x86_64/envs/gpaw-tddft-legacy/lib/python3.9/site-packages/numpy (version 1.26.4)
scipy:  /Users/denniswayo/miniforge-x86_64/envs/gpaw-tddft-legacy/lib/python3.9/site-packages/scipy (version 1.13.1)
libxc:  5.1.7
units:  Angstrom and eV
cores: 1
OpenMP: False
OMP_NUM_THREADS: 1

Input parameters:
  basis: dzp
  kpts: [1 1 1]
  mode: lcao
  occupations: {fixmagmom: False,
                name: fermi-dirac,
                width: 0.05}
  spinpol: True
  symmetry: off
  xc: PBE

System changes: positions, numbers, cell, pbc, initial_charges, initial_magmoms 

Initialize ...

species:
  C:
    name: Carbon
    id: 4aa54d4b901d75f77cc0ea3eec22967b
    Z: 6.0
    valence: 4
    core: 2
    charge: 0.0
    file: /Users/denniswayo/miniforge-x86_64/envs/gpaw-tddft-legacy/lib/python3.9/site-packages/gpaw_data/setups/gpaw-setups-0.9.20000/C.PBE.gz
    compensation charges: {type: gauss,
                           rc: 0.20,
                           lmax: 2}
    cutoffs: {filter: 1.14,
              core: 1.14}
    projectors:
      #              energy  rcut
      - 2s(2.00)   -13.751   0.635
      - 2p(2.00)    -5.284   0.635
      -  s          13.461   0.635
      -  p          21.927   0.635
      -  d           0.000   0.635
  
    # LCAO basis set for C:
    #   Name: dzp
    #   File: /Users/denniswayo/miniforge-x86_64/envs/gpaw-tddft-legacy/lib/python3.9/site-packages/gpaw_data/setups/gpaw-setups-0.9.20000/C.dzp.basis.gz
    #   Number of radial functions: 5
    #   Number of spherical harmonics: 13
    #     l=0, rc=5.5469 Bohr: 2s-sz confined orbital
    #     l=1, rc=6.6719 Bohr: 2p-sz confined orbital
    #     l=0, rc=3.0312 Bohr: 2s-dz split-valence wave
    #     l=1, rc=3.7500 Bohr: 2p-dz split-valence wave
    #     l=2, rc=6.6719 Bohr: d-type Gaussian polarization
    #   Number of RI-basis functions 0

  B:
    name: Boron
    id: 6e91439235a05fd7549e31636e8f777c
    Z: 5.0
    valence: 3
    core: 2
    charge: 0.0
    file: /Users/denniswayo/miniforge-x86_64/envs/gpaw-tddft-legacy/lib/python3.9/site-packages/gpaw_data/setups/gpaw-setups-0.9.20000/B.PBE.gz
    compensation charges: {type: gauss,
                           rc: 0.20,
                           lmax: 2}
    cutoffs: {filter: 1.14,
              core: 1.38}
    projectors:
      #              energy  rcut
      - 2s(2.00)    -9.443   0.635
      - 2p(1.00)    -3.606   0.635
      -  s          17.768   0.635
      -  p          23.605   0.635
      -  d           0.000   0.635
  
    # LCAO basis set for B:
    #   Name: dzp
    #   File: /Users/denniswayo/miniforge-x86_64/envs/gpaw-tddft-legacy/lib/python3.9/site-packages/gpaw_data/setups/gpaw-setups-0.9.20000/B.dzp.basis.gz
    #   Number of radial functions: 5
    #   Number of spherical harmonics: 13
    #     l=0, rc=6.6719 Bohr: 2s-sz confined orbital
    #     l=1, rc=8.2188 Bohr: 2p-sz confined orbital
    #     l=0, rc=3.7500 Bohr: 2s-dz split-valence wave
    #     l=1, rc=4.6094 Bohr: 2p-dz split-valence wave
    #     l=2, rc=8.2188 Bohr: d-type Gaussian polarization
    #   Number of RI-basis functions 0

  N:
    name: Nitrogen
    id: f7500608b86eaa90eef8b1d9a670dc53
    Z: 7.0
    valence: 5
    core: 2
    charge: 0.0
    file: /Users/denniswayo/miniforge-x86_64/envs/gpaw-tddft-legacy/lib/python3.9/site-packages/gpaw_data/setups/gpaw-setups-0.9.20000/N.PBE.gz
    compensation charges: {type: gauss,
                           rc: 0.18,
                           lmax: 2}
    cutoffs: {filter: 1.11,
              core: 0.96}
    projectors:
      #              energy  rcut
      - 2s(2.00)   -18.583   0.603
      - 2p(3.00)    -7.089   0.529
      -  s           8.629   0.603
      -  p          20.123   0.529
      -  d           0.000   0.577
  
    # LCAO basis set for N:
    #   Name: dzp
    #   File: /Users/denniswayo/miniforge-x86_64/envs/gpaw-tddft-legacy/lib/python3.9/site-packages/gpaw_data/setups/gpaw-setups-0.9.20000/N.dzp.basis.gz
    #   Number of radial functions: 5
    #   Number of spherical harmonics: 13
    #     l=0, rc=4.8594 Bohr: 2s-sz confined orbital
    #     l=1, rc=6.0625 Bohr: 2p-sz confined orbital
    #     l=0, rc=2.6094 Bohr: 2s-dz split-valence wave
    #     l=1, rc=3.2656 Bohr: 2p-dz split-valence wave
    #     l=2, rc=6.0625 Bohr: d-type Gaussian polarization
    #   Number of RI-basis functions 0

Reference energy: -52656.693831  # eV

Spin-polarized calculation.
Magnetic moment: 0.000000

Convergence criteria:
 Maximum [total energy] change in last 3 cyles: 0.0005 eV / valence electron
 Maximum integral of absolute [dens]ity change: 0.0001 electrons / valence electron
 Maximum integral of absolute [eigenst]ate change: 4e-08 eV^2 / valence electron
 Maximum number of scf [iter]ations: 333
 (Square brackets indicate name in SCF output, whereas a 'c' in
 the SCF output indicates the quantity has converged.)

Symmetries present (total): 1

  ( 1  0  0)
  ( 0  1  0)
  ( 0  0  1)

1 k-point (Gamma)
1 k-point in the irreducible part of the Brillouin zone
       k-points in crystal coordinates                weights
   0:     0.00000000    0.00000000    0.00000000          1/1

Wave functions: LCAO
  Diagonalizer: Serial LAPACK
  Atomic Correction: dense with blas
  Data-type: float
 

Occupation numbers: Fermi-Dirac:
  width: 0.0500  # eV
 

Eigensolver
   LCAO using direct dense diagonalizer 

Densities:
  Coarse grid: 56*56*200 grid
  Fine grid: 112*112*400 grid
  Total Charge: 0.000000 

Density mixing:
  Method: difference
  Backend: pulay
  Linear mixing parameter: 0.05
  old densities: 5
  Damping of long wavelength oscillations: 50 

Hamiltonian:
  XC and Coulomb potentials evaluated on a 112*112*400 grid
  Using the PBE Exchange-Correlation functional
  Interpolation: tri-quintic (5. degree polynomial)
  Poisson solver: FastPoissonSolver using
    Stencil: 8*3+1=25 point O(h^6) finite-difference Laplacian
    FFT axes: [0, 1, 2]
    FST axes: []
 

XC parameters: PBE with 2 nearest neighbor stencil

Memory estimate:
  Process memory now: 659.03 MiB
  Calculator: 488.40 MiB
    Density: 259.68 MiB
      Arrays: 167.48 MiB
      Localized functions: 25.21 MiB
      Mixer: 66.99 MiB
    Hamiltonian: 126.49 MiB
      Arrays: 124.41 MiB
      XC: 0.00 MiB
      Poisson: 0.00 MiB
      vbar: 2.07 MiB
    Wavefunctions: 102.24 MiB
      C [qnM]: 0.59 MiB
      S, T [2 x qmm]: 6.19 MiB
      P [aqMi]: 0.39 MiB
      BasisFunctions: 95.06 MiB
      Eigensolver: 0.00 MiB

Total number of cores used: 1

Number of atoms: 49
Number of atomic orbitals: 637
Number of bands in calculation: 122
Number of valence electrons: 196
Bands to converge: occupied

... initialized

Initializing position-dependent things.

Density initialized from atomic densities
                                                            
                                                            
                                                            
                                                            
              N     N     N     N     N                     
             B N   B  N  B  N  B  N  B  N                   
              B      B     B     B     B                    
                BN    BN     B     BN    BN                 
                   N     N     N     N      N               
                  B     B  N  B  N  B  N   B N              
                    C     B     B     B     B               
                                                            
                                                            
                                                            
                                                            

Positions:
   0 C      0.000000    0.000000   20.000000    ( 0.0000,  0.0000,  0.0000)
   1 B     -1.250000    2.165064   20.000000    ( 0.0000,  0.0000,  0.0000)
   2 N     -1.250000    3.608439   20.000000    ( 0.0000,  0.0000,  0.0000)
   3 B     -2.500000    4.330127   20.000000    ( 0.0000,  0.0000,  0.0000)
   4 N     -2.500000    5.773503   20.000000    ( 0.0000,  0.0000,  0.0000)
   5 B     -3.750000    6.495191   20.000000    ( 0.0000,  0.0000,  0.0000)
   6 N     -3.750000    7.938566   20.000000    ( 0.0000,  0.0000,  0.0000)
   7 B     -5.000000    8.660254   20.000000    ( 0.0000,  0.0000,  0.0000)
   8 N     -5.000000   10.103630   20.000000    ( 0.0000,  0.0000,  0.0000)
   9 B      2.500000    0.000000   20.000000    ( 0.0000,  0.0000,  0.0000)
  10 N      2.500000    1.443376   20.000000    ( 0.0000,  0.0000,  0.0000)
  11 B      1.250000    2.165064   20.000000    ( 0.0000,  0.0000,  0.0000)
  12 N      1.250000    3.608439   20.000000    ( 0.0000,  0.0000,  0.0000)
  13 B     -0.000000    4.330127   20.000000    ( 0.0000,  0.0000,  0.0000)
  14 N     -0.000000    5.773503   20.000000    ( 0.0000,  0.0000,  0.0000)
  15 B     -1.250000    6.495191   20.000000    ( 0.0000,  0.0000,  0.0000)
  16 N     -1.250000    7.938566   20.000000    ( 0.0000,  0.0000,  0.0000)
  17 B     -2.500000    8.660254   20.000000    ( 0.0000,  0.0000,  0.0000)
  18 N     -2.500000   10.103630   20.000000    ( 0.0000,  0.0000,  0.0000)
  19 B      5.000000    0.000000   20.000000    ( 0.0000,  0.0000,  0.0000)
  20 N      5.000000    1.443376   20.000000    ( 0.0000,  0.0000,  0.0000)
  21 B      3.750000    2.165064   20.000000    ( 0.0000,  0.0000,  0.0000)
  22 N      3.750000    3.608439   20.000000    ( 0.0000,  0.0000,  0.0000)
  23 B      2.500000    4.330127   20.000000    ( 0.0000,  0.0000,  0.0000)
  24 N      2.500000    5.773503   20.000000    ( 0.0000,  0.0000,  0.0000)
  25 B      1.250000    6.495191   20.000000    ( 0.0000,  0.0000,  0.0000)
  26 N      1.250000    7.938566   20.000000    ( 0.0000,  0.0000,  0.0000)
  27 B     -0.000000    8.660254   20.000000    ( 0.0000,  0.0000,  0.0000)
  28 N     -0.000000   10.103630   20.000000    ( 0.0000,  0.0000,  0.0000)
  29 B      7.500000    0.000000   20.000000    ( 0.0000,  0.0000,  0.0000)
  30 N      7.500000    1.443376   20.000000    ( 0.0000,  0.0000,  0.0000)
  31 B      6.250000    2.165064   20.000000    ( 0.0000,  0.0000,  0.0000)
  32 N      6.250000    3.608439   20.000000    ( 0.0000,  0.0000,  0.0000)
  33 B      5.000000    4.330127   20.000000    ( 0.0000,  0.0000,  0.0000)
  34 N      5.000000    5.773503   20.000000    ( 0.0000,  0.0000,  0.0000)
  35 B      3.750000    6.495191   20.000000    ( 0.0000,  0.0000,  0.0000)
  36 N      3.750000    7.938566   20.000000    ( 0.0000,  0.0000,  0.0000)
  37 B      2.500000    8.660254   20.000000    ( 0.0000,  0.0000,  0.0000)
  38 N      2.500000   10.103630   20.000000    ( 0.0000,  0.0000,  0.0000)
  39 B     10.000000    0.000000   20.000000    ( 0.0000,  0.0000,  0.0000)
  40 N     10.000000    1.443376   20.000000    ( 0.0000,  0.0000,  0.0000)
  41 B      8.750000    2.165064   20.000000    ( 0.0000,  0.0000,  0.0000)
  42 N      8.750000    3.608439   20.000000    ( 0.0000,  0.0000,  0.0000)
  43 B      7.500000    4.330127   20.000000    ( 0.0000,  0.0000,  0.0000)
  44 N      7.500000    5.773503   20.000000    ( 0.0000,  0.0000,  0.0000)
  45 B      6.250000    6.495191   20.000000    ( 0.0000,  0.0000,  0.0000)
  46 N      6.250000    7.938566   20.000000    ( 0.0000,  0.0000,  0.0000)
  47 B      5.000000    8.660254   20.000000    ( 0.0000,  0.0000,  0.0000)
  48 N      5.000000   10.103630   20.000000    ( 0.0000,  0.0000,  0.0000)

Unit cell:
           periodic     x           y           z      points  spacing
  1. axis:    yes   12.500000    0.000000    0.000000    56     0.1933
  2. axis:    yes   -6.250000   10.825318    0.000000    56     0.1933
  3. axis:    yes    0.000000    0.000000   40.000000   200     0.2000

  Lengths:  12.500000  12.500000  40.000000
  Angles:   90.000000  90.000000 120.000000

Effective grid spacing dv^(1/3) = 0.2051

     iter     time        total  log10-change:  magmom
                         energy   eigst   dens
iter:   1 14:07:31  -423.148524        c          +0.0000
iter:   2 14:07:42  -418.683636        c -0.76    +0.0000
iter:   3 14:07:52  -403.967378        c -0.81    +0.0000
iter:   4 14:08:02  -403.605367        c -1.18    +0.0000
iter:   5 14:08:11  -403.425495        c -1.42    +0.0000
iter:   6 14:08:20  -403.161379        c -1.57    +0.0000
iter:   7 14:08:29  -403.126554        c -2.02    +0.0000
iter:   8 14:08:38  -403.099694c       c -2.14    +0.0000
iter:   9 14:08:47  -403.094348c       c -2.23    +0.0000
iter:  10 14:08:56  -403.074728c       c -2.30    +0.0000
iter:  11 14:09:05  -403.073426c       c -2.70    +0.0000
iter:  12 14:09:14  -403.069473c       c -2.77    -0.0000
iter:  13 14:09:23  -403.070365c       c -2.84    +0.0000
iter:  14 14:09:35  -403.070567c       c -2.91    -0.0000
iter:  15 14:09:46  -403.070517c       c -2.99    -0.0000
iter:  16 14:09:56  -403.070538c       c -3.33    -0.0000
iter:  17 14:10:05  -403.070543c       c -3.38    -0.0000
iter:  18 14:10:14  -403.070457c       c -3.57    -0.0000
iter:  19 14:10:23  -403.070392c       c -3.65    -0.0000
iter:  20 14:10:33  -403.070427c       c -3.81    -0.0000
iter:  21 14:10:44  -403.070426c       c -4.25c   +0.0000

Converged after 21 iterations.

Dipole moment: (-23.256191, -5.175352, 0.000000) |e|*Ang

Total magnetic moment: (0.000000, 0.000000, 0.000000)
Local magnetic moments:
   0 C  ( 0.000000,  0.000000,  0.000000)
   1 B  ( 0.000000,  0.000000,  0.000000)
   2 N  ( 0.000000,  0.000000,  0.000000)
   3 B  ( 0.000000,  0.000000,  0.000000)
   4 N  ( 0.000000,  0.000000,  0.000000)
   5 B  ( 0.000000,  0.000000,  0.000000)
   6 N  ( 0.000000,  0.000000,  0.000000)
   7 B  ( 0.000000,  0.000000,  0.000000)
   8 N  ( 0.000000,  0.000000,  0.000000)
   9 B  ( 0.000000,  0.000000,  0.000000)
  10 N  ( 0.000000,  0.000000,  0.000000)
  11 B  ( 0.000000,  0.000000,  0.000000)
  12 N  ( 0.000000,  0.000000,  0.000000)
  13 B  ( 0.000000,  0.000000,  0.000000)
  14 N  ( 0.000000,  0.000000,  0.000000)
  15 B  ( 0.000000,  0.000000,  0.000000)
  16 N  ( 0.000000,  0.000000,  0.000000)
  17 B  ( 0.000000,  0.000000,  0.000000)
  18 N  ( 0.000000,  0.000000,  0.000000)
  19 B  ( 0.000000,  0.000000,  0.000000)
  20 N  ( 0.000000,  0.000000,  0.000000)
  21 B  ( 0.000000,  0.000000,  0.000000)
  22 N  ( 0.000000,  0.000000,  0.000000)
  23 B  ( 0.000000,  0.000000,  0.000000)
  24 N  ( 0.000000,  0.000000,  0.000000)
  25 B  ( 0.000000,  0.000000,  0.000000)
  26 N  ( 0.000000,  0.000000,  0.000000)
  27 B  ( 0.000000,  0.000000,  0.000000)
  28 N  ( 0.000000,  0.000000,  0.000000)
  29 B  ( 0.000000,  0.000000,  0.000000)
  30 N  ( 0.000000,  0.000000,  0.000000)
  31 B  ( 0.000000,  0.000000,  0.000000)
  32 N  ( 0.000000,  0.000000, -0.000000)
  33 B  ( 0.000000,  0.000000,  0.000000)
  34 N  ( 0.000000,  0.000000,  0.000000)
  35 B  ( 0.000000,  0.000000,  0.000000)
  36 N  ( 0.000000,  0.000000,  0.000000)
  37 B  ( 0.000000,  0.000000,  0.000000)
  38 N  ( 0.000000,  0.000000,  0.000000)
  39 B  ( 0.000000,  0.000000,  0.000000)
  40 N  ( 0.000000,  0.000000,  0.000000)
  41 B  ( 0.000000,  0.000000,  0.000000)
  42 N  ( 0.000000,  0.000000,  0.000000)
  43 B  ( 0.000000,  0.000000,  0.000000)
  44 N  ( 0.000000,  0.000000,  0.000000)
  45 B  ( 0.000000,  0.000000,  0.000000)
  46 N  ( 0.000000,  0.000000,  0.000000)
  47 B  ( 0.000000,  0.000000,  0.000000)
  48 N  ( 0.000000,  0.000000,  0.000000)

Energy contributions relative to reference atoms: (reference = -52656.693831)

Kinetic:       +362.636070
Potential:     -368.991371
External:        +0.000000
XC:            -412.266801
Entropy (-ST):   -0.131022
Local:          +15.617188
SIC:             +0.000000
--------------------------
Free energy:   -403.135937
Extrapolated:  -403.070426

Spin contamination: 0.000000 electrons
                   Up                     Down
 Band  Eigenvalues  Occupancy  Eigenvalues  Occupancy
    0    -22.93241    1.00000    -22.93241    1.00000
    1    -22.48182    1.00000    -22.48182    1.00000
    2    -22.17827    1.00000    -22.17827    1.00000
    3    -22.12049    1.00000    -22.12049    1.00000
    4    -22.11611    1.00000    -22.11611    1.00000
    5    -22.07923    1.00000    -22.07923    1.00000
    6    -21.90545    1.00000    -21.90545    1.00000
    7    -21.04250    1.00000    -21.04250    1.00000
    8    -20.91099    1.00000    -20.91099    1.00000
    9    -20.80607    1.00000    -20.80607    1.00000
   10    -20.78847    1.00000    -20.78847    1.00000
   11    -20.78709    1.00000    -20.78709    1.00000
   12    -20.57098    1.00000    -20.57098    1.00000
   13    -20.41665    1.00000    -20.41665    1.00000
   14    -20.40355    1.00000    -20.40355    1.00000
   15    -20.31415    1.00000    -20.31415    1.00000
   16    -20.29126    1.00000    -20.29126    1.00000
   17    -20.28574    1.00000    -20.28574    1.00000
   18    -19.84412    1.00000    -19.84412    1.00000
   19    -19.63067    1.00000    -19.63067    1.00000
   20    -19.49937    1.00000    -19.49937    1.00000
   21    -19.47405    1.00000    -19.47405    1.00000
   22    -19.43851    1.00000    -19.43851    1.00000
   23    -19.43152    1.00000    -19.43152    1.00000
   24    -14.65802    1.00000    -14.65802    1.00000
   25    -13.72060    1.00000    -13.72060    1.00000
   26    -13.68501    1.00000    -13.68501    1.00000
   27    -13.63260    1.00000    -13.63260    1.00000
   28    -13.60845    1.00000    -13.60845    1.00000
   29    -13.49644    1.00000    -13.49644    1.00000
   30    -13.48763    1.00000    -13.48763    1.00000
   31    -13.34613    1.00000    -13.34613    1.00000
   32    -13.29238    1.00000    -13.29238    1.00000
   33    -13.25217    1.00000    -13.25217    1.00000
   34    -13.11101    1.00000    -13.11101    1.00000
   35    -12.93892    1.00000    -12.93892    1.00000
   36    -12.36305    1.00000    -12.36305    1.00000
   37    -11.84562    1.00000    -11.84562    1.00000
   38    -11.80092    1.00000    -11.80092    1.00000
   39    -11.70487    1.00000    -11.70487    1.00000
   40    -11.56271    1.00000    -11.56271    1.00000
   41    -11.52074    1.00000    -11.52074    1.00000
   42    -11.31081    1.00000    -11.31081    1.00000
   43    -11.23955    1.00000    -11.23955    1.00000
   44    -11.13671    1.00000    -11.13671    1.00000
   45    -11.12263    1.00000    -11.12263    1.00000
   46    -10.82197    1.00000    -10.82197    1.00000
   47    -10.75861    1.00000    -10.75861    1.00000
   48    -10.30374    1.00000    -10.30374    1.00000
   49    -10.11200    1.00000    -10.11200    1.00000
   50    -10.05168    1.00000    -10.05168    1.00000
   51     -9.95823    1.00000     -9.95823    1.00000
   52     -9.94419    1.00000     -9.94419    1.00000
   53     -9.78872    1.00000     -9.78872    1.00000
   54     -9.68108    1.00000     -9.68108    1.00000
   55     -9.65917    1.00000     -9.65917    1.00000
   56     -9.41949    1.00000     -9.41949    1.00000
   57     -9.37885    1.00000     -9.37885    1.00000
   58     -9.36756    1.00000     -9.36756    1.00000
   59     -9.33441    1.00000     -9.33441    1.00000
   60     -9.32282    1.00000     -9.32282    1.00000
   61     -9.30511    1.00000     -9.30511    1.00000
   62     -9.23860    1.00000     -9.23860    1.00000
   63     -9.22159    1.00000     -9.22159    1.00000
   64     -9.16921    1.00000     -9.16921    1.00000
   65     -9.15747    1.00000     -9.15747    1.00000
   66     -9.15514    1.00000     -9.15514    1.00000
   67     -9.12031    1.00000     -9.12031    1.00000
   68     -9.11315    1.00000     -9.11315    1.00000
   69     -9.11190    1.00000     -9.11190    1.00000
   70     -8.97164    1.00000     -8.97164    1.00000
   71     -8.21441    1.00000     -8.21441    1.00000
   72     -8.18672    1.00000     -8.18672    1.00000
   73     -7.80425    1.00000     -7.80425    1.00000
   74     -7.72832    1.00000     -7.72832    1.00000
   75     -7.70964    1.00000     -7.70964    1.00000
   76     -7.69512    1.00000     -7.69512    1.00000
   77     -7.58284    1.00000     -7.58284    1.00000
   78     -7.52324    1.00000     -7.52324    1.00000
   79     -7.48495    1.00000     -7.48495    1.00000
   80     -7.47883    1.00000     -7.47883    1.00000
   81     -7.46807    1.00000     -7.46807    1.00000
   82     -7.18292    1.00000     -7.18292    1.00000
   83     -6.84899    1.00000     -6.84899    1.00000
   84     -6.81168    1.00000     -6.81168    1.00000
   85     -6.76559    1.00000     -6.76559    1.00000
   86     -6.74520    1.00000     -6.74520    1.00000
   87     -6.74123    1.00000     -6.74123    1.00000
   88     -6.71180    1.00000     -6.71180    1.00000
   89     -6.70204    1.00000     -6.70204    1.00000
   90     -6.22062    1.00000     -6.22062    1.00000
   91     -6.11713    1.00000     -6.11713    1.00000
   92     -5.55974    1.00000     -5.55974    1.00000
   93     -5.50584    1.00000     -5.50584    1.00000
   94     -5.46779    1.00000     -5.46779    1.00000
   95     -5.43922    1.00000     -5.43922    1.00000
   96     -5.43766    1.00000     -5.43766    1.00000
   97     -1.91095    0.63702     -1.91095    0.63702
   98     -1.85470    0.36298     -1.85470    0.36298
   99     -0.57110    0.00000     -0.57110    0.00000
  100     -0.23781    0.00000     -0.23781    0.00000
  101     -0.23767    0.00000     -0.23767    0.00000
  102     -0.21840    0.00000     -0.21840    0.00000
  103     -0.21322    0.00000     -0.21322    0.00000
  104     -0.13961    0.00000     -0.13961    0.00000
  105     -0.00673    0.00000     -0.00673    0.00000
  106      0.70167    0.00000      0.70167    0.00000
  107      0.85918    0.00000      0.85918    0.00000
  108      0.87135    0.00000      0.87135    0.00000
  109      0.90130    0.00000      0.90130    0.00000
  110      0.97214    0.00000      0.97214    0.00000
  111      1.40662    0.00000      1.40662    0.00000
  112      2.04135    0.00000      2.04135    0.00000
  113      2.15324    0.00000      2.15324    0.00000
  114      2.18597    0.00000      2.18597    0.00000
  115      2.19103    0.00000      2.19103    0.00000
  116      2.26842    0.00000      2.26842    0.00000
  117      3.14082    0.00000      3.14082    0.00000
  118      3.26216    0.00000      3.26216    0.00000
  119      3.49555    0.00000      3.49555    0.00000
  120      3.52825    0.00000      3.52825    0.00000
  121      3.54224    0.00000      3.54224    0.00000

Fermi level: -1.88282

Gap: 0.056 eV
Transition (v -> c):
  (s=1, k=0, n=97, [0.00, 0.00, 0.00]) -> (s=0, k=0, n=98, [0.00, 0.00, 0.00])
No difference between direct/indirect transitions

Forces in eV/Ang:
  0 C     0.00925   -0.13117    0.00000
  1 B     1.24402    0.09052    0.00000
  2 N     0.35439   -0.61902    0.00000
  3 B    -0.21565    0.10147    0.00000
  4 N    -0.14895   -0.19018    0.00000
  5 B    -0.03229   -0.01563    0.00000
  6 N    -0.14740    0.11610    0.00000
  7 B    -0.05593   -0.32466    0.00000
  8 N    -1.99065    0.85254    0.00000
  9 B     0.12037   -0.01479    0.00000
 10 N    -1.45242   -0.41060    0.00000
 11 B    -1.23533    0.08251    0.00000
 12 N    -0.44676   -0.60461    0.00000
 13 B     0.01182    0.30430    0.00000
 14 N    -0.03119   -0.19578    0.00000
 15 B     0.01999    0.08424    0.00000
 16 N    -0.05421    0.03767    0.00000
 17 B     0.11329   -0.00680    0.00000
 18 N    -0.11545    0.04113    0.00000
 19 B     0.01906   -0.12210    0.00000
 20 N    -0.08829    0.13374    0.00000
 21 B     0.22338    0.25755    0.00000
 22 N     0.02799   -0.15654    0.00000
 23 B     0.23768    0.10252    0.00000
 24 N     0.11434   -0.14161    0.00000
 25 B     0.00301    0.08433    0.00000
 26 N     0.04776    0.06987    0.00000
 27 B     0.01156   -0.05139    0.00000
 28 N     0.02459    0.24786    0.00000
 29 B     0.00375   -0.12276    0.00000
 30 N     0.14563    0.13801    0.00000
 31 B     0.01118    0.05017    0.00000
 32 N     0.03312   -0.03279    0.00000
 33 B     0.04506    0.03599    0.00000
 34 N     0.07935   -0.08616    0.00000
 35 B     0.05344   -0.01542    0.00000
 36 N     0.11982    0.16887    0.00000
 37 B    -0.09125   -0.00707    0.00000
 38 N     0.11605    0.07813    0.00000
 39 B    -0.09862   -0.01647    0.00000
 40 N     1.40140   -0.40358    0.00000
 41 B    -0.20124    0.25638    0.00000
 42 N    -0.02325   -0.18305    0.00000
 43 B    -0.02378    0.03540    0.00000
 44 N    -0.06752   -0.11683    0.00000
 45 B     0.01013    0.05004    0.00000
 46 N    -0.02083    0.06876    0.00000
 47 B     0.07492   -0.32504    0.00000
 48 N     1.91569    0.87951    0.00000

System changes: positions 

Initializing position-dependent things.

Density initialized from wave functions
                                                            
                                                            
                                                            
                                                            
              N     N     N     N     N                     
             B N   B  N  B  N  B  N  B  N                   
               B     B     B     B     B                    
                BN    BN     B     BN    BN                 
                   N     N     N     N      N               
                  B     B  N  B  N  B  N   B N              
                    C     B     B     B     B               
                                                            
                                                            
                                                            
                                                            

Positions:
   0 C      0.000132   -0.001874   20.000000    ( 0.0000,  0.0000,  0.0000)
   1 B     -1.232228    2.166357   20.000000    ( 0.0000,  0.0000,  0.0000)
   2 N     -1.244937    3.599596   20.000000    ( 0.0000,  0.0000,  0.0000)
   3 B     -2.503081    4.331577   20.000000    ( 0.0000,  0.0000,  0.0000)
   4 N     -2.502128    5.770786   20.000000    ( 0.0000,  0.0000,  0.0000)
   5 B     -3.750461    6.494967   20.000000    ( 0.0000,  0.0000,  0.0000)
   6 N     -3.752106    7.940225   20.000000    ( 0.0000,  0.0000,  0.0000)
   7 B     -5.000799    8.655616   20.000000    ( 0.0000,  0.0000,  0.0000)
   8 N     -5.028438   10.115809   20.000000    ( 0.0000,  0.0000,  0.0000)
   9 B      2.501720   -0.000211   20.000000    ( 0.0000,  0.0000,  0.0000)
  10 N      2.479251    1.437510   20.000000    ( 0.0000,  0.0000,  0.0000)
  11 B      1.232352    2.166242   20.000000    ( 0.0000,  0.0000,  0.0000)
  12 N      1.243618    3.599802   20.000000    ( 0.0000,  0.0000,  0.0000)
  13 B      0.000169    4.334474   20.000000    ( 0.0000,  0.0000,  0.0000)
  14 N     -0.000446    5.770706   20.000000    ( 0.0000,  0.0000,  0.0000)
  15 B     -1.249714    6.496394   20.000000    ( 0.0000,  0.0000,  0.0000)
  16 N     -1.250774    7.939104   20.000000    ( 0.0000,  0.0000,  0.0000)
  17 B     -2.498382    8.660157   20.000000    ( 0.0000,  0.0000,  0.0000)
  18 N     -2.501649   10.104217   20.000000    ( 0.0000,  0.0000,  0.0000)
  19 B      5.000272   -0.001744   20.000000    ( 0.0000,  0.0000,  0.0000)
  20 N      4.998739    1.445286   20.000000    ( 0.0000,  0.0000,  0.0000)
  21 B      3.753191    2.168743   20.000000    ( 0.0000,  0.0000,  0.0000)
  22 N      3.750400    3.606203   20.000000    ( 0.0000,  0.0000,  0.0000)
  23 B      2.503395    4.331592   20.000000    ( 0.0000,  0.0000,  0.0000)
  24 N      2.501633    5.771480   20.000000    ( 0.0000,  0.0000,  0.0000)
  25 B      1.250043    6.496395   20.000000    ( 0.0000,  0.0000,  0.0000)
  26 N      1.250682    7.939564   20.000000    ( 0.0000,  0.0000,  0.0000)
  27 B      0.000165    8.659520   20.000000    ( 0.0000,  0.0000,  0.0000)
  28 N      0.000351   10.107171   20.000000    ( 0.0000,  0.0000,  0.0000)
  29 B      7.500054   -0.001754   20.000000    ( 0.0000,  0.0000,  0.0000)
  30 N      7.502080    1.445347   20.000000    ( 0.0000,  0.0000,  0.0000)
  31 B      6.250160    2.165780   20.000000    ( 0.0000,  0.0000,  0.0000)
  32 N      6.250473    3.607971   20.000000    ( 0.0000,  0.0000,  0.0000)
  33 B      5.000644    4.330641   20.000000    ( 0.0000,  0.0000,  0.0000)
  34 N      5.001134    5.772272   20.000000    ( 0.0000,  0.0000,  0.0000)
  35 B      3.750763    6.494970   20.000000    ( 0.0000,  0.0000,  0.0000)
  36 N      3.751712    7.940979   20.000000    ( 0.0000,  0.0000,  0.0000)
  37 B      2.498696    8.660153   20.000000    ( 0.0000,  0.0000,  0.0000)
  38 N      2.501658   10.104746   20.000000    ( 0.0000,  0.0000,  0.0000)
  39 B      9.998591   -0.000235   20.000000    ( 0.0000,  0.0000,  0.0000)
  40 N     10.020020    1.437610   20.000000    ( 0.0000,  0.0000,  0.0000)
  41 B      8.747125    2.168726   20.000000    ( 0.0000,  0.0000,  0.0000)
  42 N      8.749668    3.605824   20.000000    ( 0.0000,  0.0000,  0.0000)
  43 B      7.499660    4.330633   20.000000    ( 0.0000,  0.0000,  0.0000)
  44 N      7.499035    5.771834   20.000000    ( 0.0000,  0.0000,  0.0000)
  45 B      6.250145    6.495905   20.000000    ( 0.0000,  0.0000,  0.0000)
  46 N      6.249702    7.939549   20.000000    ( 0.0000,  0.0000,  0.0000)
  47 B      5.001070    8.655611   20.000000    ( 0.0000,  0.0000,  0.0000)
  48 N      5.027367   10.116194   20.000000    ( 0.0000,  0.0000,  0.0000)

Unit cell:
           periodic     x           y           z      points  spacing
  1. axis:    yes   12.500000    0.000000    0.000000    56     0.1933
  2. axis:    yes   -6.250000   10.825318    0.000000    56     0.1933
  3. axis:    yes    0.000000    0.000000   40.000000   200     0.2000

  Lengths:  12.500000  12.500000  40.000000
  Angles:   90.000000  90.000000 120.000000

Effective grid spacing dv^(1/3) = 0.2051

     iter     time        total  log10-change:  magmom
                         energy   eigst   dens
iter:   1 14:11:18  -403.279223        c          +0.0000
iter:   2 14:11:30  -403.265844        c -2.56    +0.0000
iter:   3 14:11:42  -403.251599c       c -2.65    -0.0000
iter:   4 14:11:53  -403.247468c       c -2.81    -0.0000
iter:   5 14:12:04  -403.248442c       c -3.07    -0.0000
iter:   6 14:12:15  -403.248119c       c -3.16    -0.0000
iter:   7 14:12:26  -403.245922c       c -3.22    +0.0000
iter:   8 14:12:37  -403.246373c       c -3.57    +0.0000
iter:   9 14:12:47  -403.246353c       c -3.91    +0.0000
iter:  10 14:12:57  -403.246335c       c -3.95    +0.0000
iter:  11 14:13:07  -403.246334c       c -4.35c   +0.0000

Converged after 11 iterations.

Dipole moment: (-24.782408, -4.186271, -0.000000) |e|*Ang

Total magnetic moment: (0.000000, 0.000000, 0.000000)
Local magnetic moments:
   0 C  ( 0.000000,  0.000000,  0.000000)
   1 B  ( 0.000000,  0.000000,  0.000000)
   2 N  ( 0.000000,  0.000000, -0.000000)
   3 B  ( 0.000000,  0.000000,  0.000000)
   4 N  ( 0.000000,  0.000000, -0.000000)
   5 B  ( 0.000000,  0.000000, -0.000000)
   6 N  ( 0.000000,  0.000000, -0.000000)
   7 B  ( 0.000000,  0.000000,  0.000000)
   8 N  ( 0.000000,  0.000000,  0.000000)
   9 B  ( 0.000000,  0.000000,  0.000000)
  10 N  ( 0.000000,  0.000000, -0.000000)
  11 B  ( 0.000000,  0.000000,  0.000000)
  12 N  ( 0.000000,  0.000000, -0.000000)
  13 B  ( 0.000000,  0.000000,  0.000000)
  14 N  ( 0.000000,  0.000000,  0.000000)
  15 B  ( 0.000000,  0.000000,  0.000000)
  16 N  ( 0.000000,  0.000000,  0.000000)
  17 B  ( 0.000000,  0.000000,  0.000000)
  18 N  ( 0.000000,  0.000000,  0.000000)
  19 B  ( 0.000000,  0.000000,  0.000000)
  20 N  ( 0.000000,  0.000000, -0.000000)
  21 B  ( 0.000000,  0.000000, -0.000000)
  22 N  ( 0.000000,  0.000000,  0.000000)
  23 B  ( 0.000000,  0.000000,  0.000000)
  24 N  ( 0.000000,  0.000000, -0.000000)
  25 B  ( 0.000000,  0.000000,  0.000000)
  26 N  ( 0.000000,  0.000000,  0.000000)
  27 B  ( 0.000000,  0.000000,  0.000000)
  28 N  ( 0.000000,  0.000000, -0.000000)
  29 B  ( 0.000000,  0.000000,  0.000000)
  30 N  ( 0.000000,  0.000000, -0.000000)
  31 B  ( 0.000000,  0.000000,  0.000000)
  32 N  ( 0.000000,  0.000000, -0.000000)
  33 B  ( 0.000000,  0.000000, -0.000000)
  34 N  ( 0.000000,  0.000000,  0.000000)
  35 B  ( 0.000000,  0.000000, -0.000000)
  36 N  ( 0.000000,  0.000000, -0.000000)
  37 B  ( 0.000000,  0.000000,  0.000000)
  38 N  ( 0.000000,  0.000000,  0.000000)
  39 B  ( 0.000000,  0.000000,  0.000000)
  40 N  ( 0.000000,  0.000000, -0.000000)
  41 B  ( 0.000000,  0.000000, -0.000000)
  42 N  ( 0.000000,  0.000000,  0.000000)
  43 B  ( 0.000000,  0.000000, -0.000000)
  44 N  ( 0.000000,  0.000000,  0.000000)
  45 B  ( 0.000000,  0.000000,  0.000000)
  46 N  ( 0.000000,  0.000000,  0.000000)
  47 B  ( 0.000000,  0.000000,  0.000000)
  48 N  ( 0.000000,  0.000000,  0.000000)

Energy contributions relative to reference atoms: (reference = -52656.693831)

Kinetic:       +361.299930
Potential:     -368.064377
External:        +0.000000
XC:            -412.082544
Entropy (-ST):   -0.133228
Local:          +15.667272
SIC:             +0.000000
--------------------------
Free energy:   -403.312948
Extrapolated:  -403.246334

Spin contamination: 0.000000 electrons
                   Up                     Down
 Band  Eigenvalues  Occupancy  Eigenvalues  Occupancy
    0    -22.96837    1.00000    -22.96837    1.00000
    1    -22.53501    1.00000    -22.53501    1.00000
    2    -22.13198    1.00000    -22.13198    1.00000
    3    -22.12044    1.00000    -22.12044    1.00000
    4    -22.11884    1.00000    -22.11884    1.00000
    5    -22.11131    1.00000    -22.11131    1.00000
    6    -21.88649    1.00000    -21.88649    1.00000
    7    -21.06428    1.00000    -21.06428    1.00000
    8    -20.89182    1.00000    -20.89182    1.00000
    9    -20.78703    1.00000    -20.78703    1.00000
   10    -20.78556    1.00000    -20.78556    1.00000
   11    -20.76487    1.00000    -20.76487    1.00000
   12    -20.59435    1.00000    -20.59435    1.00000
   13    -20.41129    1.00000    -20.41129    1.00000
   14    -20.40478    1.00000    -20.40478    1.00000
   15    -20.31643    1.00000    -20.31643    1.00000
   16    -20.30110    1.00000    -20.30110    1.00000
   17    -20.28731    1.00000    -20.28731    1.00000
   18    -19.87177    1.00000    -19.87177    1.00000
   19    -19.59346    1.00000    -19.59346    1.00000
   20    -19.51532    1.00000    -19.51532    1.00000
   21    -19.48546    1.00000    -19.48546    1.00000
   22    -19.45949    1.00000    -19.45949    1.00000
   23    -19.44672    1.00000    -19.44672    1.00000
   24    -14.67996    1.00000    -14.67996    1.00000
   25    -13.68576    1.00000    -13.68576    1.00000
   26    -13.66931    1.00000    -13.66931    1.00000
   27    -13.64819    1.00000    -13.64819    1.00000
   28    -13.57500    1.00000    -13.57500    1.00000
   29    -13.52073    1.00000    -13.52073    1.00000
   30    -13.50274    1.00000    -13.50274    1.00000
   31    -13.33463    1.00000    -13.33463    1.00000
   32    -13.31900    1.00000    -13.31900    1.00000
   33    -13.26742    1.00000    -13.26742    1.00000
   34    -13.09868    1.00000    -13.09868    1.00000
   35    -12.89937    1.00000    -12.89937    1.00000
   36    -12.37589    1.00000    -12.37589    1.00000
   37    -11.88467    1.00000    -11.88467    1.00000
   38    -11.79086    1.00000    -11.79086    1.00000
   39    -11.69672    1.00000    -11.69672    1.00000
   40    -11.54412    1.00000    -11.54412    1.00000
   41    -11.45764    1.00000    -11.45764    1.00000
   42    -11.27222    1.00000    -11.27222    1.00000
   43    -11.25606    1.00000    -11.25606    1.00000
   44    -11.16335    1.00000    -11.16335    1.00000
   45    -11.12703    1.00000    -11.12703    1.00000
   46    -10.81975    1.00000    -10.81975    1.00000
   47    -10.73923    1.00000    -10.73923    1.00000
   48    -10.30787    1.00000    -10.30787    1.00000
   49    -10.14369    1.00000    -10.14369    1.00000
   50    -10.07330    1.00000    -10.07330    1.00000
   51     -9.95212    1.00000     -9.95212    1.00000
   52     -9.90055    1.00000     -9.90055    1.00000
   53     -9.78093    1.00000     -9.78093    1.00000
   54     -9.69906    1.00000     -9.69906    1.00000
   55     -9.67920    1.00000     -9.67920    1.00000
   56     -9.43017    1.00000     -9.43017    1.00000
   57     -9.41158    1.00000     -9.41158    1.00000
   58     -9.34788    1.00000     -9.34788    1.00000
   59     -9.33934    1.00000     -9.33934    1.00000
   60     -9.33156    1.00000     -9.33156    1.00000
   61     -9.30487    1.00000     -9.30487    1.00000
   62     -9.21372    1.00000     -9.21372    1.00000
   63     -9.18978    1.00000     -9.18978    1.00000
   64     -9.17028    1.00000     -9.17028    1.00000
   65     -9.15540    1.00000     -9.15540    1.00000
   66     -9.15127    1.00000     -9.15127    1.00000
   67     -9.12185    1.00000     -9.12185    1.00000
   68     -9.11706    1.00000     -9.11706    1.00000
   69     -9.10112    1.00000     -9.10112    1.00000
   70     -8.95340    1.00000     -8.95340    1.00000
   71     -8.21210    1.00000     -8.21210    1.00000
   72     -8.18482    1.00000     -8.18482    1.00000
   73     -7.83328    1.00000     -7.83328    1.00000
   74     -7.74898    1.00000     -7.74898    1.00000
   75     -7.71893    1.00000     -7.71893    1.00000
   76     -7.66395    1.00000     -7.66395    1.00000
   77     -7.62042    1.00000     -7.62042    1.00000
   78     -7.49996    1.00000     -7.49996    1.00000
   79     -7.47766    1.00000     -7.47766    1.00000
   80     -7.47467    1.00000     -7.47467    1.00000
   81     -7.45090    1.00000     -7.45090    1.00000
   82     -7.21000    1.00000     -7.21000    1.00000
   83     -6.86304    1.00000     -6.86304    1.00000
   84     -6.77966    1.00000     -6.77966    1.00000
   85     -6.76754    1.00000     -6.76754    1.00000
   86     -6.75702    1.00000     -6.75702    1.00000
   87     -6.74467    1.00000     -6.74467    1.00000
   88     -6.74015    1.00000     -6.74015    1.00000
   89     -6.71572    1.00000     -6.71572    1.00000
   90     -6.14319    1.00000     -6.14319    1.00000
   91     -6.10974    1.00000     -6.10974    1.00000
   92     -5.53363    1.00000     -5.53363    1.00000
   93     -5.51416    1.00000     -5.51416    1.00000
   94     -5.48075    1.00000     -5.48075    1.00000
   95     -5.45835    1.00000     -5.45835    1.00000
   96     -5.44533    1.00000     -5.44533    1.00000
   97     -1.79557    0.61567     -1.79557    0.61567
   98     -1.74845    0.38433     -1.74845    0.38433
   99     -0.50369    0.00000     -0.50369    0.00000
  100     -0.26474    0.00000     -0.26474    0.00000
  101     -0.24453    0.00000     -0.24453    0.00000
  102     -0.24307    0.00000     -0.24307    0.00000
  103     -0.10464    0.00000     -0.10464    0.00000
  104     -0.01294    0.00000     -0.01294    0.00000
  105      0.06693    0.00000      0.06693    0.00000
  106      0.72934    0.00000      0.72934    0.00000
  107      0.80715    0.00000      0.80715    0.00000
  108      0.83808    0.00000      0.83808    0.00000
  109      0.91777    0.00000      0.91777    0.00000
  110      1.01862    0.00000      1.01862    0.00000
  111      1.39467    0.00000      1.39467    0.00000
  112      2.05639    0.00000      2.05639    0.00000
  113      2.10550    0.00000      2.10550    0.00000
  114      2.17676    0.00000      2.17676    0.00000
  115      2.20387    0.00000      2.20387    0.00000
  116      2.30632    0.00000      2.30632    0.00000
  117      3.12776    0.00000      3.12776    0.00000
  118      3.24393    0.00000      3.24393    0.00000
  119      3.48661    0.00000      3.48661    0.00000
  120      3.50689    0.00000      3.50689    0.00000
  121      3.51701    0.00000      3.51701    0.00000

Fermi level: -1.77201

Gap: 0.047 eV
Transition (v -> c):
  (s=1, k=0, n=97, [0.00, 0.00, 0.00]) -> (s=0, k=0, n=98, [0.00, 0.00, 0.00])
No difference between direct/indirect transitions

Forces in eV/Ang:
  0 C    -0.00660    0.18535    0.00000
  1 B     1.27175   -0.19628    0.00000
  2 N     0.00282    0.09004    0.00000
  3 B     0.16584   -0.28882    0.00000
  4 N    -0.05361    0.01296    0.00000
  5 B    -0.07396   -0.01679    0.00000
  6 N     0.00083    0.04936    0.00000
  7 B    -0.24761    0.29706    0.00000
  8 N    -0.55874    0.09768    0.00000
  9 B    -0.62187   -0.06833    0.00000
 10 N    -0.56952    0.10049    0.00000
 11 B    -1.29358   -0.19369    0.00000
 12 N    -0.03360    0.08538    0.00000
 13 B    -0.02882   -0.14534    0.00000
 14 N    -0.00211    0.17191    0.00000
 15 B    -0.04137   -0.07408    0.00000
 16 N     0.02260    0.02373    0.00000
 17 B    -0.03998    0.04369    0.00000
 18 N    -0.02803   -0.06494    0.00000
 19 B    -0.06510    0.06587    0.00000
 20 N    -0.02278   -0.02520    0.00000
 21 B    -0.52094   -0.19582    0.00000
 22 N     0.09363    0.05977    0.00000
 23 B    -0.19058   -0.27369    0.00000
 24 N     0.06031    0.02086    0.00000
 25 B     0.01193   -0.05474    0.00000
 26 N    -0.01228    0.02980    0.00000
 27 B     0.00161    0.07969    0.00000
 28 N     0.01208    0.00512    0.00000
 29 B     0.09455    0.08204    0.00000
 30 N     0.03287   -0.02674    0.00000
 31 B     0.02849    0.01182    0.00000
 32 N     0.00353    0.02451    0.00000
 33 B     0.04078   -0.05502    0.00000
 34 N     0.02032    0.00909    0.00000
 35 B     0.07680    0.01325    0.00000
 36 N    -0.00218    0.05887    0.00000
 37 B     0.03646    0.07718    0.00000
 38 N     0.03624   -0.05683    0.00000
 39 B     0.60633   -0.04524    0.00000
 40 N     0.52903    0.09718    0.00000
 41 B     0.53485   -0.18883    0.00000
 42 N    -0.08191    0.05874    0.00000
 43 B    -0.00081   -0.06444    0.00000
 44 N    -0.01019    0.00888    0.00000
 45 B     0.01163    0.01454    0.00000
 46 N    -0.00104   -0.24281    0.00000
 47 B     0.23530    0.31794    0.00000
 48 N     0.52333    0.07834    0.00000

System changes: positions 

Initializing position-dependent things.

Density initialized from wave functions
                                                            
                                                            
                                                            
                                                            
              N     N     N     N      N                    
             B N   B  N  B  N  B  N  B  N                   
               B     B     B     B     B                    
                BN    BN     B     BN    BN                 
                   N     N     N     N     N                
                  B     B  N  B  N  B  N   B N              
                    C     B     B     B     B               
                                                            
                                                            
                                                            
                                                            

Positions:
   0 C      0.000068    0.000937   20.000000    ( 0.0000,  0.0000,  0.0000)
   1 B     -1.196050    2.162999   20.000000    ( 0.0000,  0.0000,  0.0000)
   2 N     -1.242087    3.596586   20.000000    ( 0.0000,  0.0000,  0.0000)
   3 B     -2.501340    4.326386   20.000000    ( 0.0000,  0.0000,  0.0000)
   4 N     -2.504413    5.769556   20.000000    ( 0.0000,  0.0000,  0.0000)
   5 B     -3.752250    6.494496   20.000000    ( 0.0000,  0.0000,  0.0000)
   6 N     -3.753250    7.942163   20.000000    ( 0.0000,  0.0000,  0.0000)
   7 B     -5.006375    8.659219   20.000000    ( 0.0000,  0.0000,  0.0000)
   8 N     -5.055710   10.124552   20.000000    ( 0.0000,  0.0000,  0.0000)
   9 B      2.489770   -0.001745   20.000000    ( 0.0000,  0.0000,  0.0000)
  10 N      2.455996    1.436359   20.000000    ( 0.0000,  0.0000,  0.0000)
  11 B      1.195790    2.162875   20.000000    ( 0.0000,  0.0000,  0.0000)
  12 N      1.239401    3.596809   20.000000    ( 0.0000,  0.0000,  0.0000)
  13 B     -0.000336    4.333857   20.000000    ( 0.0000,  0.0000,  0.0000)
  14 N     -0.000735    5.772729   20.000000    ( 0.0000,  0.0000,  0.0000)
  15 B     -1.250415    6.495521   20.000000    ( 0.0000,  0.0000,  0.0000)
  16 N     -1.250733    7.939893   20.000000    ( 0.0000,  0.0000,  0.0000)
  17 B     -2.498318    8.661009   20.000000    ( 0.0000,  0.0000,  0.0000)
  18 N     -2.503140   10.103195   20.000000    ( 0.0000,  0.0000,  0.0000)
  19 B      4.999072   -0.001340   20.000000    ( 0.0000,  0.0000,  0.0000)
  20 N      4.997571    1.445817   20.000000    ( 0.0000,  0.0000,  0.0000)
  21 B      3.744147    2.166711   20.000000    ( 0.0000,  0.0000,  0.0000)
  22 N      3.752562    3.606209   20.000000    ( 0.0000,  0.0000,  0.0000)
  23 B      2.501315    4.326723   20.000000    ( 0.0000,  0.0000,  0.0000)
  24 N      2.503785    5.770797   20.000000    ( 0.0000,  0.0000,  0.0000)
  25 B      1.250314    6.495924   20.000000    ( 0.0000,  0.0000,  0.0000)
  26 N      1.250804    7.940733   20.000000    ( 0.0000,  0.0000,  0.0000)
  27 B      0.000290    8.660768   20.000000    ( 0.0000,  0.0000,  0.0000)
  28 N      0.000796   10.109229   20.000000    ( 0.0000,  0.0000,  0.0000)
  29 B      7.502044   -0.001019   20.000000    ( 0.0000,  0.0000,  0.0000)
  30 N      7.503910    1.445880   20.000000    ( 0.0000,  0.0000,  0.0000)
  31 B      6.250839    2.166421   20.000000    ( 0.0000,  0.0000,  0.0000)
  32 N      6.250807    3.608221   20.000000    ( 0.0000,  0.0000,  0.0000)
  33 B      5.001845    4.329784   20.000000    ( 0.0000,  0.0000,  0.0000)
  34 N      5.002180    5.771782   20.000000    ( 0.0000,  0.0000,  0.0000)
  35 B      3.752777    6.495124   20.000000    ( 0.0000,  0.0000,  0.0000)
  36 N      3.752611    7.943530   20.000000    ( 0.0000,  0.0000,  0.0000)
  37 B      2.498734    8.661698   20.000000    ( 0.0000,  0.0000,  0.0000)
  38 N      2.503324   10.104183   20.000000    ( 0.0000,  0.0000,  0.0000)
  39 B     10.010390   -0.001303   20.000000    ( 0.0000,  0.0000,  0.0000)
  40 N     10.042034    1.436446   20.000000    ( 0.0000,  0.0000,  0.0000)
  41 B      8.756633    2.166830   20.000000    ( 0.0000,  0.0000,  0.0000)
  42 N      8.747786    3.605600   20.000000    ( 0.0000,  0.0000,  0.0000)
  43 B      7.499456    4.329575   20.000000    ( 0.0000,  0.0000,  0.0000)
  44 N      7.498292    5.771097   20.000000    ( 0.0000,  0.0000,  0.0000)
  45 B      6.250466    6.496601   20.000000    ( 0.0000,  0.0000,  0.0000)
  46 N      6.249517    7.935054   20.000000    ( 0.0000,  0.0000,  0.0000)
  47 B      5.006541    8.659644   20.000000    ( 0.0000,  0.0000,  0.0000)
  48 N      5.053314   10.124748   20.000000    ( 0.0000,  0.0000,  0.0000)

Unit cell:
           periodic     x           y           z      points  spacing
  1. axis:    yes   12.500000    0.000000    0.000000    56     0.1933
  2. axis:    yes   -6.250000   10.825318    0.000000    56     0.1933
  3. axis:    yes    0.000000    0.000000   40.000000   200     0.2000

  Lengths:  12.500000  12.500000  40.000000
  Angles:   90.000000  90.000000 120.000000

Effective grid spacing dv^(1/3) = 0.2051

     iter     time        total  log10-change:  magmom
                         energy   eigst   dens
iter:   1 14:13:37  -403.450431        c          +0.0000
iter:   2 14:13:47  -403.417346        c -2.44    +0.0000
iter:   3 14:13:56  -403.399427c       c -2.61    +0.0000
iter:   4 14:14:06  -403.392295c       c -2.68    -0.0000
iter:   5 14:14:15  -403.390481c       c -2.93    +0.0000
iter:   6 14:14:24  -403.389160c       c -3.00    -0.0000
iter:   7 14:14:33  -403.388499c       c -3.26    +0.0000
iter:   8 14:14:43  -403.388186c       c -3.30    +0.0000
iter:   9 14:14:52  -403.388299c       c -3.66    +0.0000
iter:  10 14:15:01  -403.388274c       c -3.89    +0.0000
iter:  11 14:15:11  -403.388282c       c -4.24c   +0.0000

Converged after 11 iterations.

Dipole moment: (-26.865898, -3.934960, -0.000000) |e|*Ang

Total magnetic moment: (0.000000, 0.000000, 0.000000)
Local magnetic moments:
   0 C  ( 0.000000,  0.000000,  0.000000)
   1 B  ( 0.000000,  0.000000,  0.000000)
   2 N  ( 0.000000,  0.000000,  0.000000)
   3 B  ( 0.000000,  0.000000,  0.000000)
   4 N  ( 0.000000,  0.000000, -0.000000)
   5 B  ( 0.000000,  0.000000,  0.000000)
   6 N  ( 0.000000,  0.000000, -0.000000)
   7 B  ( 0.000000,  0.000000,  0.000000)
   8 N  ( 0.000000,  0.000000,  0.000000)
   9 B  ( 0.000000,  0.000000,  0.000000)
  10 N  ( 0.000000,  0.000000, -0.000000)
  11 B  ( 0.000000,  0.000000,  0.000000)
  12 N  ( 0.000000,  0.000000,  0.000000)
  13 B  ( 0.000000,  0.000000,  0.000000)
  14 N  ( 0.000000,  0.000000,  0.000000)
  15 B  ( 0.000000,  0.000000,  0.000000)
  16 N  ( 0.000000,  0.000000, -0.000000)
  17 B  ( 0.000000,  0.000000,  0.000000)
  18 N  ( 0.000000,  0.000000,  0.000000)
  19 B  ( 0.000000,  0.000000,  0.000000)
  20 N  ( 0.000000,  0.000000, -0.000000)
  21 B  ( 0.000000,  0.000000,  0.000000)
  22 N  ( 0.000000,  0.000000,  0.000000)
  23 B  ( 0.000000,  0.000000,  0.000000)
  24 N  ( 0.000000,  0.000000, -0.000000)
  25 B  ( 0.000000,  0.000000,  0.000000)
  26 N  ( 0.000000,  0.000000, -0.000000)
  27 B  ( 0.000000,  0.000000,  0.000000)
  28 N  ( 0.000000,  0.000000, -0.000000)
  29 B  ( 0.000000,  0.000000,  0.000000)
  30 N  ( 0.000000,  0.000000, -0.000000)
  31 B  ( 0.000000,  0.000000,  0.000000)
  32 N  ( 0.000000,  0.000000, -0.000000)
  33 B  ( 0.000000,  0.000000, -0.000000)
  34 N  ( 0.000000,  0.000000,  0.000000)
  35 B  ( 0.000000,  0.000000,  0.000000)
  36 N  ( 0.000000,  0.000000, -0.000000)
  37 B  ( 0.000000,  0.000000,  0.000000)
  38 N  ( 0.000000,  0.000000,  0.000000)
  39 B  ( 0.000000,  0.000000,  0.000000)
  40 N  ( 0.000000,  0.000000, -0.000000)
  41 B  ( 0.000000,  0.000000,  0.000000)
  42 N  ( 0.000000,  0.000000,  0.000000)
  43 B  ( 0.000000,  0.000000, -0.000000)
  44 N  ( 0.000000,  0.000000,  0.000000)
  45 B  ( 0.000000,  0.000000,  0.000000)
  46 N  ( 0.000000,  0.000000,  0.000000)
  47 B  ( 0.000000,  0.000000,  0.000000)
  48 N  ( 0.000000,  0.000000,  0.000000)

Energy contributions relative to reference atoms: (reference = -52656.693831)

Kinetic:       +359.138239
Potential:     -366.441487
External:        +0.000000
XC:            -411.674452
Entropy (-ST):   -0.137217
Local:          +15.658026
SIC:             +0.000000
--------------------------
Free energy:   -403.456891
Extrapolated:  -403.388282

Spin contamination: 0.000000 electrons
                   Up                     Down
 Band  Eigenvalues  Occupancy  Eigenvalues  Occupancy
    0    -23.08848    1.00000    -23.08848    1.00000
    1    -22.59411    1.00000    -22.59411    1.00000
    2    -22.10766    1.00000    -22.10766    1.00000
    3    -22.10611    1.00000    -22.10611    1.00000
    4    -22.08658    1.00000    -22.08658    1.00000
    5    -22.06987    1.00000    -22.06987    1.00000
    6    -21.86928    1.00000    -21.86928    1.00000
    7    -21.08030    1.00000    -21.08030    1.00000
    8    -20.91282    1.00000    -20.91282    1.00000
    9    -20.77241    1.00000    -20.77241    1.00000
   10    -20.74502    1.00000    -20.74502    1.00000
   11    -20.72156    1.00000    -20.72156    1.00000
   12    -20.57464    1.00000    -20.57464    1.00000
   13    -20.40743    1.00000    -20.40743    1.00000
   14    -20.39509    1.00000    -20.39509    1.00000
   15    -20.30356    1.00000    -20.30356    1.00000
   16    -20.26909    1.00000    -20.26909    1.00000
   17    -20.23699    1.00000    -20.23699    1.00000
   18    -19.86270    1.00000    -19.86270    1.00000
   19    -19.58850    1.00000    -19.58850    1.00000
   20    -19.49986    1.00000    -19.49986    1.00000
   21    -19.46093    1.00000    -19.46093    1.00000
   22    -19.43427    1.00000    -19.43427    1.00000
   23    -19.38689    1.00000    -19.38689    1.00000
   24    -14.78665    1.00000    -14.78665    1.00000
   25    -13.68562    1.00000    -13.68562    1.00000
   26    -13.65081    1.00000    -13.65081    1.00000
   27    -13.62248    1.00000    -13.62248    1.00000
   28    -13.53761    1.00000    -13.53761    1.00000
   29    -13.50870    1.00000    -13.50870    1.00000
   30    -13.48891    1.00000    -13.48891    1.00000
   31    -13.31761    1.00000    -13.31761    1.00000
   32    -13.30440    1.00000    -13.30440    1.00000
   33    -13.25075    1.00000    -13.25075    1.00000
   34    -13.08434    1.00000    -13.08434    1.00000
   35    -12.88246    1.00000    -12.88246    1.00000
   36    -12.38070    1.00000    -12.38070    1.00000
   37    -11.90960    1.00000    -11.90960    1.00000
   38    -11.78531    1.00000    -11.78531    1.00000
   39    -11.65765    1.00000    -11.65765    1.00000
   40    -11.51456    1.00000    -11.51456    1.00000
   41    -11.41420    1.00000    -11.41420    1.00000
   42    -11.26931    1.00000    -11.26931    1.00000
   43    -11.25467    1.00000    -11.25467    1.00000
   44    -11.14715    1.00000    -11.14715    1.00000
   45    -11.09920    1.00000    -11.09920    1.00000
   46    -10.80181    1.00000    -10.80181    1.00000
   47    -10.71562    1.00000    -10.71562    1.00000
   48    -10.30156    1.00000    -10.30156    1.00000
   49    -10.17382    1.00000    -10.17382    1.00000
   50    -10.05510    1.00000    -10.05510    1.00000
   51     -9.96123    1.00000     -9.96123    1.00000
   52     -9.83879    1.00000     -9.83879    1.00000
   53     -9.78654    1.00000     -9.78654    1.00000
   54     -9.68732    1.00000     -9.68732    1.00000
   55     -9.66860    1.00000     -9.66860    1.00000
   56     -9.48421    1.00000     -9.48421    1.00000
   57     -9.42689    1.00000     -9.42689    1.00000
   58     -9.33150    1.00000     -9.33150    1.00000
   59     -9.32001    1.00000     -9.32001    1.00000
   60     -9.30675    1.00000     -9.30675    1.00000
   61     -9.26530    1.00000     -9.26530    1.00000
   62     -9.19758    1.00000     -9.19758    1.00000
   63     -9.15457    1.00000     -9.15457    1.00000
   64     -9.14385    1.00000     -9.14385    1.00000
   65     -9.10257    1.00000     -9.10257    1.00000
   66     -9.09824    1.00000     -9.09824    1.00000
   67     -9.08439    1.00000     -9.08439    1.00000
   68     -9.08149    1.00000     -9.08149    1.00000
   69     -9.05847    1.00000     -9.05847    1.00000
   70     -8.95683    1.00000     -8.95683    1.00000
   71     -8.19659    1.00000     -8.19659    1.00000
   72     -8.17208    1.00000     -8.17208    1.00000
   73     -7.82571    1.00000     -7.82571    1.00000
   74     -7.71613    1.00000     -7.71613    1.00000
   75     -7.69636    1.00000     -7.69636    1.00000
   76     -7.66723    1.00000     -7.66723    1.00000
   77     -7.62012    1.00000     -7.62012    1.00000
   78     -7.48857    1.00000     -7.48857    1.00000
   79     -7.46889    1.00000     -7.46889    1.00000
   80     -7.44235    1.00000     -7.44235    1.00000
   81     -7.41747    1.00000     -7.41747    1.00000
   82     -7.19720    1.00000     -7.19720    1.00000
   83     -6.86598    1.00000     -6.86598    1.00000
   84     -6.77951    1.00000     -6.77951    1.00000
   85     -6.75841    1.00000     -6.75841    1.00000
   86     -6.72564    1.00000     -6.72564    1.00000
   87     -6.72035    1.00000     -6.72035    1.00000
   88     -6.71464    1.00000     -6.71464    1.00000
   89     -6.70060    1.00000     -6.70060    1.00000
   90     -6.18658    1.00000     -6.18658    1.00000
   91     -6.14257    1.00000     -6.14257    1.00000
   92     -5.52964    1.00000     -5.52964    1.00000
   93     -5.52090    1.00000     -5.52090    1.00000
   94     -5.46247    1.00000     -5.46247    1.00000
   95     -5.44237    1.00000     -5.44237    1.00000
   96     -5.40326    1.00000     -5.40326    1.00000
   97     -1.79632    0.55935     -1.79632    0.55935
   98     -1.77247    0.44065     -1.77247    0.44065
   99     -0.49873    0.00000     -0.49873    0.00000
  100     -0.25739    0.00000     -0.25739    0.00000
  101     -0.25132    0.00000     -0.25132    0.00000
  102     -0.23784    0.00000     -0.23784    0.00000
  103     -0.08284    0.00000     -0.08284    0.00000
  104     -0.00699    0.00000     -0.00699    0.00000
  105      0.33935    0.00000      0.33935    0.00000
  106      0.75105    0.00000      0.75105    0.00000
  107      0.78917    0.00000      0.78917    0.00000
  108      0.84802    0.00000      0.84802    0.00000
  109      0.91026    0.00000      0.91026    0.00000
  110      1.03718    0.00000      1.03718    0.00000
  111      1.38713    0.00000      1.38713    0.00000
  112      2.07259    0.00000      2.07259    0.00000
  113      2.08662    0.00000      2.08662    0.00000
  114      2.17154    0.00000      2.17154    0.00000
  115      2.21381    0.00000      2.21381    0.00000
  116      2.34672    0.00000      2.34672    0.00000
  117      3.10361    0.00000      3.10361    0.00000
  118      3.24735    0.00000      3.24735    0.00000
  119      3.48479    0.00000      3.48479    0.00000
  120      3.51043    0.00000      3.51043    0.00000
  121      3.51263    0.00000      3.51263    0.00000

Fermi level: -1.78439

Gap: 0.024 eV
Transition (v -> c):
  (s=1, k=0, n=97, [0.00, 0.00, 0.00]) -> (s=0, k=0, n=98, [0.00, 0.00, 0.00])
No difference between direct/indirect transitions

Forces in eV/Ang:
  0 C    -0.03189    0.36784    0.00000
  1 B     1.15463   -0.14988    0.00000
  2 N    -0.08047    0.23057    0.00000
  3 B     0.15697   -0.16821    0.00000
  4 N     0.02753   -0.02116    0.00000
  5 B    -0.03674    0.01224    0.00000
  6 N    -0.14946    0.14386    0.00000
  7 B    -0.17700    0.18659    0.00000
  8 N     0.52930   -0.41384    0.00000
  9 B    -0.53309    0.01155    0.00000
 10 N    -0.31488    0.16672    0.00000
 11 B    -1.19204   -0.14442    0.00000
 12 N     0.06059    0.23042    0.00000
 13 B    -0.03192   -0.00630    0.00000
 14 N     0.00600    0.06388    0.00000
 15 B    -0.08615   -0.03638    0.00000
 16 N     0.00016    0.00812    0.00000
 17 B    -0.05294   -0.02216    0.00000
 18 N    -0.34551    0.12130    0.00000
 19 B    -0.05313    0.10577    0.00000
 20 N    -0.18967   -0.02518    0.00000
 21 B    -0.60461   -0.24510    0.00000
 22 N    -0.08963   -0.06997    0.00000
 23 B    -0.18371   -0.16329    0.00000
 24 N    -0.01024   -0.02407    0.00000
 25 B     0.06325   -0.02618    0.00000
 26 N     0.01012    0.01127    0.00000
 27 B    -0.00104    0.07710    0.00000
 28 N     0.00786   -0.04245    0.00000
 29 B     0.06498    0.11470    0.00000
 30 N     0.20084   -0.02020    0.00000
 31 B     0.00822   -0.00903    0.00000
 32 N     0.00694   -0.01070    0.00000
 33 B     0.01994   -0.02571    0.00000
 34 N     0.02765    0.03172    0.00000
 35 B     0.03212    0.03001    0.00000
 36 N     0.15649    0.14546    0.00000
 37 B     0.04260    0.00135    0.00000
 38 N     0.35339    0.12668    0.00000
 39 B     0.50591    0.02130    0.00000
 40 N     0.31790    0.17116    0.00000
 41 B     0.59641   -0.24296    0.00000
 42 N     0.09876   -0.06691    0.00000
 43 B    -0.01005   -0.03036    0.00000
 44 N    -0.01393    0.03079    0.00000
 45 B     0.00156   -0.20113    0.00000
 46 N     0.00845    0.03701    0.00000
 47 B     0.15327    0.19322    0.00000
 48 N    -0.47068   -0.42424    0.00000

System changes: positions 

Initializing position-dependent things.

Density initialized from wave functions
                                                            
                                                            
                                                            
                                                            
              N     N     N     N      N                    
             B N   B  N  B  N  B  N  B  N                   
               B     B     B     B     B                    
                BN    BN     B     BN    BN                 
                   N     N     N     N     N                
                  B     B N   B  N  B  N   B N              
                    C     B     B     B     B               
                                                            
                                                            
                                                            
                                                            

Positions:
   0 C     -0.000847    0.013178   20.000000    ( 0.0000,  0.0000,  0.0000)
   1 B     -1.114049    2.156332   20.000000    ( 0.0000,  0.0000,  0.0000)
   2 N     -1.237993    3.593983   20.000000    ( 0.0000,  0.0000,  0.0000)
   3 B     -2.497331    4.317566   20.000000    ( 0.0000,  0.0000,  0.0000)
   4 N     -2.507344    5.765714   20.000000    ( 0.0000,  0.0000,  0.0000)
   5 B     -3.755379    6.494251   20.000000    ( 0.0000,  0.0000,  0.0000)
   6 N     -3.760392    7.949546   20.000000    ( 0.0000,  0.0000,  0.0000)
   7 B     -5.017519    8.664689   20.000000    ( 0.0000,  0.0000,  0.0000)
   8 N     -5.086970   10.129575   20.000000    ( 0.0000,  0.0000,  0.0000)
   9 B      2.463876   -0.003000   20.000000    ( 0.0000,  0.0000,  0.0000)
  10 N      2.409038    1.435839   20.000000    ( 0.0000,  0.0000,  0.0000)
  11 B      1.112402    2.156276   20.000000    ( 0.0000,  0.0000,  0.0000)
  12 N      1.232431    3.594372   20.000000    ( 0.0000,  0.0000,  0.0000)
  13 B     -0.001638    4.336373   20.000000    ( 0.0000,  0.0000,  0.0000)
  14 N     -0.001164    5.774430   20.000000    ( 0.0000,  0.0000,  0.0000)
  15 B     -1.253438    6.494521   20.000000    ( 0.0000,  0.0000,  0.0000)
  16 N     -1.251274    7.941284   20.000000    ( 0.0000,  0.0000,  0.0000)
  17 B     -2.498622    8.661074   20.000000    ( 0.0000,  0.0000,  0.0000)
  18 N     -2.516135   10.106310   20.000000    ( 0.0000,  0.0000,  0.0000)
  19 B      4.996559    0.000889   20.000000    ( 0.0000,  0.0000,  0.0000)
  20 N      4.989840    1.447006   20.000000    ( 0.0000,  0.0000,  0.0000)
  21 B      3.719952    2.160241   20.000000    ( 0.0000,  0.0000,  0.0000)
  22 N      3.752212    3.602430   20.000000    ( 0.0000,  0.0000,  0.0000)
  23 B      2.496424    4.318364   20.000000    ( 0.0000,  0.0000,  0.0000)
  24 N      2.506734    5.767905   20.000000    ( 0.0000,  0.0000,  0.0000)
  25 B      1.252496    6.495608   20.000000    ( 0.0000,  0.0000,  0.0000)
  26 N      1.251737    7.942923   20.000000    ( 0.0000,  0.0000,  0.0000)
  27 B      0.000500    8.663695   20.000000    ( 0.0000,  0.0000,  0.0000)
  28 N      0.001714   10.112568   20.000000    ( 0.0000,  0.0000,  0.0000)
  29 B      7.505901    0.001781   20.000000    ( 0.0000,  0.0000,  0.0000)
  30 N      7.513215    1.447265   20.000000    ( 0.0000,  0.0000,  0.0000)
  31 B      6.251843    2.167293   20.000000    ( 0.0000,  0.0000,  0.0000)
  32 N      6.251687    3.607781   20.000000    ( 0.0000,  0.0000,  0.0000)
  33 B      5.004056    4.328596   20.000000    ( 0.0000,  0.0000,  0.0000)
  34 N      5.004848    5.771341   20.000000    ( 0.0000,  0.0000,  0.0000)
  35 B      3.756209    6.496000   20.000000    ( 0.0000,  0.0000,  0.0000)
  36 N      3.759435    7.952107   20.000000    ( 0.0000,  0.0000,  0.0000)
  37 B      2.499060    8.663114   20.000000    ( 0.0000,  0.0000,  0.0000)
  38 N      2.516725   10.108291   20.000000    ( 0.0000,  0.0000,  0.0000)
  39 B     10.035563   -0.001847   20.000000    ( 0.0000,  0.0000,  0.0000)
  40 N     10.087365    1.436122   20.000000    ( 0.0000,  0.0000,  0.0000)
  41 B      8.781256    2.160539   20.000000    ( 0.0000,  0.0000,  0.0000)
  42 N      8.748724    3.601410   20.000000    ( 0.0000,  0.0000,  0.0000)
  43 B      7.498707    4.328054   20.000000    ( 0.0000,  0.0000,  0.0000)
  44 N      7.496448    5.770067   20.000000    ( 0.0000,  0.0000,  0.0000)
  45 B      6.250923    6.491771   20.000000    ( 0.0000,  0.0000,  0.0000)
  46 N      6.249371    7.932682   20.000000    ( 0.0000,  0.0000,  0.0000)
  47 B      5.017080    8.665712   20.000000    ( 0.0000,  0.0000,  0.0000)
  48 N      5.084276   10.129573   20.000000    ( 0.0000,  0.0000,  0.0000)

Unit cell:
           periodic     x           y           z      points  spacing
  1. axis:    yes   12.500000    0.000000    0.000000    56     0.1933
  2. axis:    yes   -6.250000   10.825318    0.000000    56     0.1933
  3. axis:    yes    0.000000    0.000000   40.000000   200     0.2000

  Lengths:  12.500000  12.500000  40.000000
  Angles:   90.000000  90.000000 120.000000

Effective grid spacing dv^(1/3) = 0.2051

     iter     time        total  log10-change:  magmom
                         energy   eigst   dens
iter:   1 14:15:40  -403.739671        c          +0.0000
iter:   2 14:15:49  -403.665011        c -2.21    +0.0000
iter:   3 14:15:58  -403.633692        c -2.35    +0.0000
iter:   4 14:16:08  -403.593678c       c -2.37    +0.0000
iter:   5 14:16:23  -403.591711c       c -2.66    +0.0000
iter:   6 14:16:33  -403.590049c       c -2.70    +0.0000
iter:   7 14:16:43  -403.592365c       c -3.05    +0.0000
iter:   8 14:16:53  -403.592327c       c -2.90    +0.0000
iter:   9 14:17:04  -403.587751c       c -2.91    +0.0000
iter:  10 14:17:14  -403.587586c       c -3.57    +0.0000
iter:  11 14:17:24  -403.587601c       c -3.67    +0.0000
iter:  12 14:17:34  -403.587612c       c -4.03c   +0.0000

Converged after 12 iterations.

Dipole moment: (-29.717925, -4.626489, -0.000000) |e|*Ang

Total magnetic moment: (0.000000, 0.000000, 0.000000)
Local magnetic moments:
   0 C  ( 0.000000,  0.000000, -0.000000)
   1 B  ( 0.000000,  0.000000, -0.000000)
   2 N  ( 0.000000,  0.000000, -0.000000)
   3 B  ( 0.000000,  0.000000, -0.000000)
   4 N  ( 0.000000,  0.000000, -0.000000)
   5 B  ( 0.000000,  0.000000, -0.000000)
   6 N  ( 0.000000,  0.000000, -0.000000)
   7 B  ( 0.000000,  0.000000, -0.000000)
   8 N  ( 0.000000,  0.000000, -0.000000)
   9 B  ( 0.000000,  0.000000,  0.000000)
  10 N  ( 0.000000,  0.000000, -0.000000)
  11 B  ( 0.000000,  0.000000, -0.000000)
  12 N  ( 0.000000,  0.000000, -0.000000)
  13 B  ( 0.000000,  0.000000,  0.000000)
  14 N  ( 0.000000,  0.000000,  0.000000)
  15 B  ( 0.000000,  0.000000,  0.000000)
  16 N  ( 0.000000,  0.000000, -0.000000)
  17 B  ( 0.000000,  0.000000,  0.000000)
  18 N  ( 0.000000,  0.000000,  0.000000)
  19 B  ( 0.000000,  0.000000,  0.000000)
  20 N  ( 0.000000,  0.000000, -0.000000)
  21 B  ( 0.000000,  0.000000, -0.000000)
  22 N  ( 0.000000,  0.000000,  0.000000)
  23 B  ( 0.000000,  0.000000, -0.000000)
  24 N  ( 0.000000,  0.000000, -0.000000)
  25 B  ( 0.000000,  0.000000,  0.000000)
  26 N  ( 0.000000,  0.000000, -0.000000)
  27 B  ( 0.000000,  0.000000,  0.000000)
  28 N  ( 0.000000,  0.000000, -0.000000)
  29 B  ( 0.000000,  0.000000,  0.000000)
  30 N  ( 0.000000,  0.000000, -0.000000)
  31 B  ( 0.000000,  0.000000,  0.000000)
  32 N  ( 0.000000,  0.000000, -0.000000)
  33 B  ( 0.000000,  0.000000, -0.000000)
  34 N  ( 0.000000,  0.000000,  0.000000)
  35 B  ( 0.000000,  0.000000, -0.000000)
  36 N  ( 0.000000,  0.000000, -0.000000)
  37 B  ( 0.000000,  0.000000,  0.000000)
  38 N  ( 0.000000,  0.000000,  0.000000)
  39 B  ( 0.000000,  0.000000,  0.000000)
  40 N  ( 0.000000,  0.000000, -0.000000)
  41 B  ( 0.000000,  0.000000, -0.000000)
  42 N  ( 0.000000,  0.000000,  0.000000)
  43 B  ( 0.000000,  0.000000, -0.000000)
  44 N  ( 0.000000,  0.000000,  0.000000)
  45 B  ( 0.000000,  0.000000,  0.000000)
  46 N  ( 0.000000,  0.000000,  0.000000)
  47 B  ( 0.000000,  0.000000, -0.000000)
  48 N  ( 0.000000,  0.000000, -0.000000)

Energy contributions relative to reference atoms: (reference = -52656.693831)

Kinetic:       +355.051387
Potential:     -363.416275
External:        +0.000000
XC:            -410.800154
Entropy (-ST):   -0.136387
Local:          +15.645624
SIC:             +0.000000
--------------------------
Free energy:   -403.655805
Extrapolated:  -403.587612

Spin contamination: 0.000000 electrons
                   Up                     Down
 Band  Eigenvalues  Occupancy  Eigenvalues  Occupancy
    0    -23.30226    1.00000    -23.30226    1.00000
    1    -22.59888    1.00000    -22.59888    1.00000
    2    -22.10116    1.00000    -22.10116    1.00000
    3    -22.07263    1.00000    -22.07263    1.00000
    4    -22.02398    1.00000    -22.02398    1.00000
    5    -21.96538    1.00000    -21.96538    1.00000
    6    -21.81235    1.00000    -21.81235    1.00000
    7    -21.05894    1.00000    -21.05894    1.00000
    8    -20.94415    1.00000    -20.94415    1.00000
    9    -20.73324    1.00000    -20.73324    1.00000
   10    -20.66316    1.00000    -20.66316    1.00000
   11    -20.63001    1.00000    -20.63001    1.00000
   12    -20.54178    1.00000    -20.54178    1.00000
   13    -20.37975    1.00000    -20.37975    1.00000
   14    -20.36823    1.00000    -20.36823    1.00000
   15    -20.27618    1.00000    -20.27618    1.00000
   16    -20.19481    1.00000    -20.19481    1.00000
   17    -20.12299    1.00000    -20.12299    1.00000
   18    -19.81143    1.00000    -19.81143    1.00000
   19    -19.57208    1.00000    -19.57208    1.00000
   20    -19.46420    1.00000    -19.46420    1.00000
   21    -19.39809    1.00000    -19.39809    1.00000
   22    -19.37999    1.00000    -19.37999    1.00000
   23    -19.23805    1.00000    -19.23805    1.00000
   24    -14.91656    1.00000    -14.91656    1.00000
   25    -13.69746    1.00000    -13.69746    1.00000
   26    -13.61053    1.00000    -13.61053    1.00000
   27    -13.58575    1.00000    -13.58575    1.00000
   28    -13.49509    1.00000    -13.49509    1.00000
   29    -13.46852    1.00000    -13.46852    1.00000
   30    -13.45364    1.00000    -13.45364    1.00000
   31    -13.28580    1.00000    -13.28580    1.00000
   32    -13.23479    1.00000    -13.23479    1.00000
   33    -13.20928    1.00000    -13.20928    1.00000
   34    -13.03611    1.00000    -13.03611    1.00000
   35    -12.84748    1.00000    -12.84748    1.00000
   36    -12.40166    1.00000    -12.40166    1.00000
   37    -11.89379    1.00000    -11.89379    1.00000
   38    -11.76452    1.00000    -11.76452    1.00000
   39    -11.56381    1.00000    -11.56381    1.00000
   40    -11.45896    1.00000    -11.45896    1.00000
   41    -11.37219    1.00000    -11.37219    1.00000
   42    -11.23607    1.00000    -11.23607    1.00000
   43    -11.19338    1.00000    -11.19338    1.00000
   44    -11.11768    1.00000    -11.11768    1.00000
   45    -11.03753    1.00000    -11.03753    1.00000
   46    -10.76272    1.00000    -10.76272    1.00000
   47    -10.66926    1.00000    -10.66926    1.00000
   48    -10.29608    1.00000    -10.29608    1.00000
   49    -10.16328    1.00000    -10.16328    1.00000
   50    -10.01899    1.00000    -10.01899    1.00000
   51     -9.96047    1.00000     -9.96047    1.00000
   52     -9.78398    1.00000     -9.78398    1.00000
   53     -9.76255    1.00000     -9.76255    1.00000
   54     -9.66586    1.00000     -9.66586    1.00000
   55     -9.63175    1.00000     -9.63175    1.00000
   56     -9.56336    1.00000     -9.56336    1.00000
   57     -9.42829    1.00000     -9.42829    1.00000
   58     -9.32830    1.00000     -9.32830    1.00000
   59     -9.28407    1.00000     -9.28407    1.00000
   60     -9.25156    1.00000     -9.25156    1.00000
   61     -9.17784    1.00000     -9.17784    1.00000
   62     -9.17216    1.00000     -9.17216    1.00000
   63     -9.11979    1.00000     -9.11979    1.00000
   64     -9.04838    1.00000     -9.04838    1.00000
   65     -9.04005    1.00000     -9.04005    1.00000
   66     -9.01089    1.00000     -9.01089    1.00000
   67     -8.99794    1.00000     -8.99794    1.00000
   68     -8.97164    1.00000     -8.97164    1.00000
   69     -8.92961    1.00000     -8.92961    1.00000
   70     -8.91388    1.00000     -8.91388    1.00000
   71     -8.14641    1.00000     -8.14641    1.00000
   72     -8.13867    1.00000     -8.13867    1.00000
   73     -7.81832    1.00000     -7.81832    1.00000
   74     -7.69216    1.00000     -7.69216    1.00000
   75     -7.66437    1.00000     -7.66437    1.00000
   76     -7.62448    1.00000     -7.62448    1.00000
   77     -7.48039    1.00000     -7.48039    1.00000
   78     -7.47102    1.00000     -7.47102    1.00000
   79     -7.43954    1.00000     -7.43954    1.00000
   80     -7.37834    1.00000     -7.37834    1.00000
   81     -7.34107    1.00000     -7.34107    1.00000
   82     -7.17611    1.00000     -7.17611    1.00000
   83     -6.85805    1.00000     -6.85805    1.00000
   84     -6.77113    1.00000     -6.77113    1.00000
   85     -6.74309    1.00000     -6.74309    1.00000
   86     -6.67609    1.00000     -6.67609    1.00000
   87     -6.67061    1.00000     -6.67061    1.00000
   88     -6.65282    1.00000     -6.65282    1.00000
   89     -6.64035    1.00000     -6.64035    1.00000
   90     -6.41486    1.00000     -6.41486    1.00000
   91     -6.11203    1.00000     -6.11203    1.00000
   92     -5.52317    1.00000     -5.52317    1.00000
   93     -5.51407    1.00000     -5.51407    1.00000
   94     -5.42095    1.00000     -5.42095    1.00000
   95     -5.41074    1.00000     -5.41074    1.00000
   96     -5.31004    1.00000     -5.31004    1.00000
   97     -1.88078    0.57474     -1.88078    0.57474
   98     -1.85066    0.42526     -1.85066    0.42526
   99     -0.51402    0.00000     -0.51402    0.00000
  100     -0.26365    0.00000     -0.26365    0.00000
  101     -0.23642    0.00000     -0.23642    0.00000
  102     -0.21909    0.00000     -0.21909    0.00000
  103     -0.02392    0.00000     -0.02392    0.00000
  104     -0.01957    0.00000     -0.01957    0.00000
  105      0.76338    0.00000      0.76338    0.00000
  106      0.77615    0.00000      0.77615    0.00000
  107      0.85782    0.00000      0.85782    0.00000
  108      0.92200    0.00000      0.92200    0.00000
  109      0.97265    0.00000      0.97265    0.00000
  110      1.08069    0.00000      1.08069    0.00000
  111      1.35447    0.00000      1.35447    0.00000
  112      2.06016    0.00000      2.06016    0.00000
  113      2.10723    0.00000      2.10723    0.00000
  114      2.18387    0.00000      2.18387    0.00000
  115      2.23532    0.00000      2.23532    0.00000
  116      2.41455    0.00000      2.41455    0.00000
  117      3.09156    0.00000      3.09156    0.00000
  118      3.24498    0.00000      3.24498    0.00000
  119      3.46807    0.00000      3.46807    0.00000
  120      3.50258    0.00000      3.50258    0.00000
  121      3.50470    0.00000      3.50470    0.00000

Fermi level: -1.86572

Gap: 0.030 eV
Transition (v -> c):
  (s=0, k=0, n=97, [0.00, 0.00, 0.00]) -> (s=0, k=0, n=98, [0.00, 0.00, 0.00])
No difference between direct/indirect transitions

Forces in eV/Ang:
  0 C     0.00428    0.01256    0.00000
  1 B     0.83211    0.22404    0.00000
  2 N    -0.15393    0.32082    0.00000
  3 B     0.14149   -0.08839    0.00000
  4 N     0.06190    0.09810    0.00000
  5 B     0.04417    0.13193    0.00000
  6 N    -0.12244   -0.01526    0.00000
  7 B    -0.02423   -0.02395    0.00000
  8 N     1.49974   -0.80303    0.00000
  9 B    -0.20448    0.27627    0.00000
 10 N    -0.06838    0.31110    0.00000
 11 B    -0.86737    0.22446    0.00000
 12 N     0.23225    0.34516    0.00000
 13 B    -0.02920    0.07655    0.00000
 14 N     0.01191    0.18984    0.00000
 15 B    -0.05333   -0.05037    0.00000
 16 N    -0.02833    0.00770    0.00000
 17 B    -0.25775    0.11498    0.00000
 18 N    -0.39656    0.22203    0.00000
 19 B    -0.24875    0.10257    0.00000
 20 N    -0.28659   -0.00347    0.00000
 21 B    -0.66252   -0.26080    0.00000
 22 N    -0.17634   -0.08619    0.00000
 23 B    -0.16930   -0.09993    0.00000
 24 N    -0.05356    0.06933    0.00000
 25 B     0.05111   -0.05350    0.00000
 26 N     0.03256    0.00335    0.00000
 27 B    -0.00480    0.05069    0.00000
 28 N    -0.00964   -0.08564    0.00000
 29 B     0.24019    0.10925    0.00000
 30 N     0.25948   -0.01480    0.00000
 31 B    -0.00961   -0.13298    0.00000
 32 N    -0.01467   -0.01237    0.00000
 33 B    -0.16673   -0.12981    0.00000
 34 N    -0.06336   -0.01536    0.00000
 35 B    -0.04578    0.12920    0.00000
 36 N     0.12019   -0.02068    0.00000
 37 B     0.24509    0.11799    0.00000
 38 N     0.37173    0.19783    0.00000
 39 B     0.20548    0.27084    0.00000
 40 N     0.19676    0.29387    0.00000
 41 B     0.64788   -0.25931    0.00000
 42 N     0.15739   -0.08049    0.00000
 43 B     0.15484   -0.12752    0.00000
 44 N     0.05552   -0.00699    0.00000
 45 B     0.00045   -0.09089    0.00000
 46 N     0.00221   -0.03607    0.00000
 47 B     0.02411   -0.03968    0.00000
 48 N    -1.41934   -0.79000    0.00000

System changes: positions 

Initializing position-dependent things.

Density initialized from wave functions
                                                            
                                                            
                                                            
                                                            
              N     N     N     N      N                    
             B N   B  N  B  N  B  N  B  N                   
               B     B     B     B     B                    
                BN    BN    BN     BN    BN                 
                   N     N     N     N     N                
                   B   B  N   B  N  B  N   B N              
                    C     B     B     B     B               
                                                            
                                                            
                                                            
                                                            

Positions:
   0 C     -0.001248    0.021501   20.000000    ( 0.0000,  0.0000,  0.0000)
   1 B     -1.013998    2.156284   20.000000    ( 0.0000,  0.0000,  0.0000)
   2 N     -1.235034    3.594007   20.000000    ( 0.0000,  0.0000,  0.0000)
   3 B     -2.491901    4.307554   20.000000    ( 0.0000,  0.0000,  0.0000)
   4 N     -2.510084    5.763762   20.000000    ( 0.0000,  0.0000,  0.0000)
   5 B     -3.757532    6.496879   20.000000    ( 0.0000,  0.0000,  0.0000)
   6 N     -3.769224    7.955506   20.000000    ( 0.0000,  0.0000,  0.0000)
   7 B     -5.028641    8.667469   20.000000    ( 0.0000,  0.0000,  0.0000)
   8 N     -5.100570   10.124730   20.000000    ( 0.0000,  0.0000,  0.0000)
   9 B      2.436832    0.001832   20.000000    ( 0.0000,  0.0000,  0.0000)
  10 N      2.354868    1.439498   20.000000    ( 0.0000,  0.0000,  0.0000)
  11 B      1.010502    2.156216   20.000000    ( 0.0000,  0.0000,  0.0000)
  12 N      1.228168    3.595191   20.000000    ( 0.0000,  0.0000,  0.0000)
  13 B     -0.003351    4.341322   20.000000    ( 0.0000,  0.0000,  0.0000)
  14 N     -0.001529    5.780035   20.000000    ( 0.0000,  0.0000,  0.0000)
  15 B     -1.256798    6.492712   20.000000    ( 0.0000,  0.0000,  0.0000)
  16 N     -1.252610    7.943058   20.000000    ( 0.0000,  0.0000,  0.0000)
  17 B     -2.504221    8.664424   20.000000    ( 0.0000,  0.0000,  0.0000)
[...]
  20 N      4.942979    1.449943   20.000000    ( 0.0000,  0.0000,  0.0000)
  21 B      3.627655    2.143927   20.000000    ( 0.0000,  0.0000,  0.0000)
  22 N      3.712893    3.585870   20.000000    ( 0.0000,  0.0000,  0.0000)
  23 B      2.483403    4.343212   20.000000    ( 0.0000,  0.0000,  0.0000)
  24 N      2.495836    5.789106   20.000000    ( 0.0000,  0.0000,  0.0000)
  25 B      1.265515    6.552331   20.000000    ( 0.0000,  0.0000,  0.0000)
  26 N      1.266987    7.996463   20.000000    ( 0.0000,  0.0000,  0.0000)
  27 B      0.000312    8.704603   20.000000    ( 0.0000,  0.0000,  0.0000)
  28 N      0.000113   10.145159   20.000000    ( 0.0000,  0.0000,  0.0000)
  29 B      7.536824    0.015383   20.000000    ( 0.0000,  0.0000,  0.0000)
  30 N      7.554077    1.449756   20.000000    ( 0.0000,  0.0000,  0.0000)
  31 B      6.249204    2.141534   20.000000    ( 0.0000,  0.0000,  0.0000)
  32 N      6.250271    3.579905   20.000000    ( 0.0000,  0.0000,  0.0000)
  33 B      4.984106    4.282489   20.000000    ( 0.0000,  0.0000,  0.0000)
  34 N      4.990926    5.724806   20.000000    ( 0.0000,  0.0000,  0.0000)
  35 B      3.751773    6.471911   20.000000    ( 0.0000,  0.0000,  0.0000)
  36 N      3.756700    7.911911   20.000000    ( 0.0000,  0.0000,  0.0000)
  37 B      2.533761    8.689450   20.000000    ( 0.0000,  0.0000,  0.0000)
  38 N      2.569429   10.138524   20.000000    ( 0.0000,  0.0000,  0.0000)
  39 B     10.106995    0.014412   20.000000    ( 0.0000,  0.0000,  0.0000)
  40 N     10.210055    1.463464   20.000000    ( 0.0000,  0.0000,  0.0000)
  41 B      8.871094    2.142124   20.000000    ( 0.0000,  0.0000,  0.0000)
  42 N      8.784558    3.583654   20.000000    ( 0.0000,  0.0000,  0.0000)
  43 B      7.516012    4.281471   20.000000    ( 0.0000,  0.0000,  0.0000)
  44 N      7.510822    5.723296   20.000000    ( 0.0000,  0.0000,  0.0000)
  45 B      6.251423    6.412793   20.000000    ( 0.0000,  0.0000,  0.0000)
  46 N      6.251920    7.846837   20.000000    ( 0.0000,  0.0000,  0.0000)
  47 B      5.020013    8.567258   20.000000    ( 0.0000,  0.0000,  0.0000)
  48 N      5.072979   10.003122   20.000000    ( 0.0000,  0.0000,  0.0000)

Unit cell:
           periodic     x           y           z      points  spacing
  1. axis:    yes   12.500000    0.000000    0.000000    56     0.1933
  2. axis:    yes   -6.250000   10.825318    0.000000    56     0.1933
  3. axis:    yes    0.000000    0.000000   40.000000   200     0.2000

  Lengths:  12.500000  12.500000  40.000000
  Angles:   90.000000  90.000000 120.000000

Effective grid spacing dv^(1/3) = 0.2051

     iter     time        total  log10-change:  magmom
                         energy   eigst   dens
iter:   1 14:31:51  -404.495928        c          -0.0000
iter:   2 14:32:00  -404.495412        c -3.10    -0.0000
iter:   3 14:32:09  -404.494131c       c -3.16    -0.0000
iter:   4 14:32:18  -404.494033c       c -3.48    +0.0000
iter:   5 14:32:28  -404.494029c       c -4.03c   +0.0000

Converged after 5 iterations.

Dipole moment: (-24.047011, 1.964463, -0.000000) |e|*Ang

Total magnetic moment: (0.000000, 0.000000, 0.000000)
Local magnetic moments:
   0 C  ( 0.000000,  0.000000, -0.000000)
   1 B  ( 0.000000,  0.000000,  0.000000)
   2 N  ( 0.000000,  0.000000,  0.000000)
   3 B  ( 0.000000,  0.000000, -0.000000)
   4 N  ( 0.000000,  0.000000,  0.000000)
   5 B  ( 0.000000,  0.000000,  0.000000)
   6 N  ( 0.000000,  0.000000,  0.000000)
   7 B  ( 0.000000,  0.000000, -0.000000)
   8 N  ( 0.000000,  0.000000,  0.000000)
   9 B  ( 0.000000,  0.000000, -0.000000)
  10 N  ( 0.000000,  0.000000, -0.000000)
  11 B  ( 0.000000,  0.000000, -0.000000)
  12 N  ( 0.000000,  0.000000,  0.000000)
  13 B  ( 0.000000,  0.000000, -0.000000)
  14 N  ( 0.000000,  0.000000, -0.000000)
  15 B  ( 0.000000,  0.000000, -0.000000)
  16 N  ( 0.000000,  0.000000, -0.000000)
  17 B  ( 0.000000,  0.000000,  0.000000)
  18 N  ( 0.000000,  0.000000,  0.000000)
  19 B  ( 0.000000,  0.000000, -0.000000)
  20 N  ( 0.000000,  0.000000, -0.000000)
  21 B  ( 0.000000,  0.000000,  0.000000)
  22 N  ( 0.000000,  0.000000,  0.000000)
  23 B  ( 0.000000,  0.000000,  0.000000)
  24 N  ( 0.000000,  0.000000, -0.000000)
  25 B  ( 0.000000,  0.000000, -0.000000)
  26 N  ( 0.000000,  0.000000, -0.000000)
  27 B  ( 0.000000,  0.000000, -0.000000)
  28 N  ( 0.000000,  0.000000,  0.000000)
  29 B  ( 0.000000,  0.000000,  0.000000)
  30 N  ( 0.000000,  0.000000,  0.000000)
  31 B  ( 0.000000,  0.000000,  0.000000)
  32 N  ( 0.000000,  0.000000, -0.000000)
  33 B  ( 0.000000,  0.000000,  0.000000)
  34 N  ( 0.000000,  0.000000, -0.000000)
  35 B  ( 0.000000,  0.000000, -0.000000)
  36 N  ( 0.000000,  0.000000,  0.000000)
  37 B  ( 0.000000,  0.000000,  0.000000)
  38 N  ( 0.000000,  0.000000,  0.000000)
  39 B  ( 0.000000,  0.000000,  0.000000)
  40 N  ( 0.000000,  0.000000, -0.000000)
  41 B  ( 0.000000,  0.000000,  0.000000)
  42 N  ( 0.000000,  0.000000,  0.000000)
  43 B  ( 0.000000,  0.000000,  0.000000)
  44 N  ( 0.000000,  0.000000, -0.000000)
  45 B  ( 0.000000,  0.000000,  0.000000)
  46 N  ( 0.000000,  0.000000,  0.000000)
  47 B  ( 0.000000,  0.000000, -0.000000)
  48 N  ( 0.000000,  0.000000,  0.000000)

Energy contributions relative to reference atoms: (reference = -52656.693831)

Kinetic:       +361.812783
Potential:     -369.573057
External:        +0.000000
XC:            -412.391423
Entropy (-ST):   -0.003154
Local:          +15.659244
SIC:             +0.000000
--------------------------
Free energy:   -404.495606
Extrapolated:  -404.494029

Spin contamination: 0.000000 electrons
                   Up                     Down
 Band  Eigenvalues  Occupancy  Eigenvalues  Occupancy
    0    -23.15147    1.00000    -23.15147    1.00000
    1    -22.52153    1.00000    -22.52153    1.00000
    2    -22.09776    1.00000    -22.09776    1.00000
    3    -22.06008    1.00000    -22.06008    1.00000
    4    -21.92353    1.00000    -21.92353    1.00000
    5    -21.83129    1.00000    -21.83129    1.00000
    6    -21.74945    1.00000    -21.74945    1.00000
    7    -20.95832    1.00000    -20.95832    1.00000
    8    -20.84494    1.00000    -20.84494    1.00000
    9    -20.71453    1.00000    -20.71453    1.00000
   10    -20.64522    1.00000    -20.64522    1.00000
   11    -20.50887    1.00000    -20.50887    1.00000
   12    -20.44417    1.00000    -20.44417    1.00000
   13    -20.30794    1.00000    -20.30794    1.00000
   14    -20.29265    1.00000    -20.29265    1.00000
   15    -20.22421    1.00000    -20.22421    1.00000
   16    -20.05734    1.00000    -20.05734    1.00000
   17    -20.03600    1.00000    -20.03600    1.00000
   18    -19.65669    1.00000    -19.65669    1.00000
   19    -19.50122    1.00000    -19.50122    1.00000
   20    -19.44921    1.00000    -19.44921    1.00000
   21    -19.29469    1.00000    -19.29469    1.00000
   22    -19.25141    1.00000    -19.25141    1.00000
   23    -19.07205    1.00000    -19.07205    1.00000
   24    -14.59845    1.00000    -14.59845    1.00000
   25    -13.63539    1.00000    -13.63539    1.00000
   26    -13.59997    1.00000    -13.59997    1.00000
   27    -13.51127    1.00000    -13.51127    1.00000
   28    -13.49313    1.00000    -13.49313    1.00000
   29    -13.42034    1.00000    -13.42034    1.00000
   30    -13.35119    1.00000    -13.35119    1.00000
   31    -13.21013    1.00000    -13.21013    1.00000
   32    -13.19196    1.00000    -13.19196    1.00000
   33    -13.13364    1.00000    -13.13364    1.00000
   34    -12.87987    1.00000    -12.87987    1.00000
   35    -12.70593    1.00000    -12.70593    1.00000
   36    -12.29967    1.00000    -12.29967    1.00000
   37    -11.77881    1.00000    -11.77881    1.00000
   38    -11.62642    1.00000    -11.62642    1.00000
   39    -11.47631    1.00000    -11.47631    1.00000
   40    -11.43665    1.00000    -11.43665    1.00000
   41    -11.35039    1.00000    -11.35039    1.00000
   42    -11.16165    1.00000    -11.16165    1.00000
   43    -11.08881    1.00000    -11.08881    1.00000
   44    -11.06353    1.00000    -11.06353    1.00000
   45    -10.93584    1.00000    -10.93584    1.00000
   46    -10.62871    1.00000    -10.62871    1.00000
   47    -10.50081    1.00000    -10.50081    1.00000
   48    -10.26324    1.00000    -10.26324    1.00000
   49    -10.02322    1.00000    -10.02322    1.00000
   50     -9.91280    1.00000     -9.91280    1.00000
   51     -9.84985    1.00000     -9.84985    1.00000
   52     -9.71815    1.00000     -9.71815    1.00000
   53     -9.66404    1.00000     -9.66404    1.00000
   54     -9.65005    1.00000     -9.65005    1.00000
   55     -9.51164    1.00000     -9.51164    1.00000
   56     -9.48435    1.00000     -9.48435    1.00000
   57     -9.33792    1.00000     -9.33792    1.00000
   58     -9.30895    1.00000     -9.30895    1.00000
   59     -9.27953    1.00000     -9.27953    1.00000
   60     -9.17413    1.00000     -9.17413    1.00000
   61     -9.16802    1.00000     -9.16802    1.00000
   62     -9.10774    1.00000     -9.10774    1.00000
   63     -9.05335    1.00000     -9.05335    1.00000
   64     -9.03275    1.00000     -9.03275    1.00000
   65     -8.93264    1.00000     -8.93264    1.00000
   66     -8.89762    1.00000     -8.89762    1.00000
   67     -8.89452    1.00000     -8.89452    1.00000
   68     -8.82882    1.00000     -8.82882    1.00000
   69     -8.73655    1.00000     -8.73655    1.00000
   70     -8.66831    1.00000     -8.66831    1.00000
   71     -8.10070    1.00000     -8.10070    1.00000
   72     -7.96563    1.00000     -7.96563    1.00000
   73     -7.76458    1.00000     -7.76458    1.00000
   74     -7.58891    1.00000     -7.58891    1.00000
   75     -7.56178    1.00000     -7.56178    1.00000
   76     -7.43472    1.00000     -7.43472    1.00000
   77     -7.41759    1.00000     -7.41759    1.00000
   78     -7.40625    1.00000     -7.40625    1.00000
   79     -7.36952    1.00000     -7.36952    1.00000
   80     -7.32941    1.00000     -7.32941    1.00000
   81     -7.22372    1.00000     -7.22372    1.00000
   82     -7.10139    1.00000     -7.10139    1.00000
   83     -6.77489    1.00000     -6.77489    1.00000
   84     -6.71753    1.00000     -6.71753    1.00000
   85     -6.71016    1.00000     -6.71016    1.00000
   86     -6.64245    1.00000     -6.64245    1.00000
   87     -6.56062    1.00000     -6.56062    1.00000
   88     -6.53259    1.00000     -6.53259    1.00000
   89     -6.48885    1.00000     -6.48885    1.00000
   90     -6.16361    1.00000     -6.16361    1.00000
   91     -6.01955    1.00000     -6.01955    1.00000
   92     -5.46285    1.00000     -5.46285    1.00000
   93     -5.44871    1.00000     -5.44871    1.00000
   94     -5.35609    1.00000     -5.35609    1.00000
   95     -5.33606    1.00000     -5.33606    1.00000
   96     -5.22806    1.00000     -5.22806    1.00000
   97     -2.29734    0.99778     -2.29734    0.99778
   98     -1.68643    0.00222     -1.68643    0.00222
   99     -0.55777    0.00000     -0.55777    0.00000
  100     -0.22091    0.00000     -0.22091    0.00000
  101     -0.18052    0.00000     -0.18052    0.00000
  102     -0.15733    0.00000     -0.15733    0.00000
  103     -0.01535    0.00000     -0.01535    0.00000
  104      0.07918    0.00000      0.07918    0.00000
  105      0.73513    0.00000      0.73513    0.00000
  106      0.86365    0.00000      0.86365    0.00000
  107      0.87214    0.00000      0.87214    0.00000
  108      0.97698    0.00000      0.97698    0.00000
  109      1.22889    0.00000      1.22889    0.00000
  110      1.39239    0.00000      1.39239    0.00000
  111      2.15271    0.00000      2.15271    0.00000
  112      2.15698    0.00000      2.15698    0.00000
  113      2.24074    0.00000      2.24074    0.00000
  114      2.25402    0.00000      2.25402    0.00000
  115      2.65776    0.00000      2.65776    0.00000
  116      2.76273    0.00000      2.76273    0.00000
  117      3.19570    0.00000      3.19570    0.00000
  118      3.20369    0.00000      3.20369    0.00000
  119      3.41729    0.00000      3.41729    0.00000
  120      3.50838    0.00000      3.50838    0.00000
  121      3.56777    0.00000      3.56777    0.00000

Fermi level: -1.99188

Gap: 0.611 eV
Transition (v -> c):
  (s=1, k=0, n=97, [0.00, 0.00, 0.00]) -> (s=0, k=0, n=98, [0.00, 0.00, 0.00])
No difference between direct/indirect transitions

Forces in eV/Ang:
  0 C     0.00417   -0.07178    0.00000
  1 B    -0.06118    0.00820   -0.00000
  2 N     0.00349   -0.04610    0.00000
  3 B     0.01828    0.04454    0.00000
  4 N     0.01795    0.01991    0.00000
  5 B    -0.01194    0.00413    0.00000
  6 N    -0.01886   -0.00999    0.00000
  7 B    -0.00306    0.02135   -0.00000
  8 N    -0.08619    0.04066   -0.00000
  9 B     0.01991    0.05373   -0.00000
 10 N    -0.08276    0.01775   -0.00000
 11 B     0.07584   -0.00117   -0.00000
 12 N    -0.00148   -0.04429    0.00000
 13 B     0.01065   -0.02559    0.00000
 14 N     0.00326   -0.01028   -0.00000
 15 B     0.01876    0.01809    0.00000
 16 N    -0.00893    0.00010    0.00000
 17 B    -0.02313    0.00173    0.00000
 18 N     0.02946    0.01157    0.00000
 19 B     0.03800   -0.02180   -0.00000
 20 N    -0.04162    0.00693    0.00000
 21 B     0.00280    0.00708   -0.00000
 22 N    -0.07439   -0.01203    0.00000
 23 B    -0.00739    0.04959    0.00000
 24 N    -0.00364    0.01599    0.00000
 25 B    -0.01239    0.01579   -0.00000
 26 N     0.02110   -0.00477    0.00000
 27 B     0.00405    0.02888    0.00000
 28 N    -0.00386    0.03555    0.00000
 29 B    -0.03657   -0.01992    0.00000
 30 N     0.01598    0.00945    0.00000
 31 B    -0.00259   -0.04255    0.00000
 32 N    -0.00512   -0.02680   -0.00000
 33 B    -0.04310   -0.04380    0.00000
 34 N    -0.00272   -0.04129    0.00000
 35 B     0.02017    0.00649    0.00000
 36 N     0.00832   -0.01731    0.00000
 37 B     0.03008    0.00523    0.00000
 38 N    -0.02532    0.01090   -0.00000
 39 B    -0.00928    0.05467   -0.00000
 40 N     0.07195   -0.00371   -0.00000
 41 B    -0.01018    0.01222   -0.00000
 42 N     0.07139   -0.00696    0.00000
 43 B     0.04525   -0.03904    0.00000
 44 N     0.00486   -0.04659    0.00000
 45 B     0.00538    0.01463    0.00000
 46 N     0.00441   -0.00425   -0.00000
 47 B     0.01493    0.01875   -0.00000
 48 N     0.07079    0.06016   -0.00000

Writing to /Users/denniswayo/gpaw-DFT/emitter2chip/hBN_5x5_C-VN/hBN_5x5_C-VN_lcao.gpw (mode='all')

Timing:                                       incl.     excl.
--------------------------------------------------------------------
Basic WFS set positions:                      0.043     0.015   0.0% |
 Redistribute:                                0.028     0.028   0.0% |
Basis functions set positions:                1.781     1.781   0.1% |
Forces:                                     249.659     1.816   0.1% |
 LCAO forces:                               247.844     0.090   0.0% |
  Atomic Hamiltonian force:                   4.967     4.967   0.3% |
  Initial:                                    0.291     0.000   0.0% |
   Get density matrix:                        0.291     0.291   0.0% |
  Paw correction:                             4.991     4.991   0.3% |
  Potential:                                223.899   223.899  14.7% |-----|
  TCI derivative:                            13.605    13.605   0.9% |
  Wait for sum:                               0.000     0.000   0.0% |
LCAO WFS Initialize:                         83.339     0.235   0.0% |
 Density initialized from wave functions:    28.707     2.124   0.1% |
  Calculate density matrix:                   0.158     0.158   0.0% |
  Construct density:                         26.425    26.425   1.7% ||
  Symmetrize density:                         0.000     0.000   0.0% |
 Hamiltonian:                                54.398     0.146   0.0% |
  Atomic:                                    17.236     0.040   0.0% |
   XC Correction:                            17.196    17.196   1.1% |
  Calculate atomic Hamiltonians:              0.154     0.154   0.0% |
  Communicate:                                0.000     0.000   0.0% |
  Hartree integrate/restrict:                 0.656     0.656   0.0% |
  Initialize Hamiltonian:                     0.000     0.000   0.0% |
  Poisson:                                    6.946     0.604   0.0% |
   Communicate from 1D:                       0.574     0.574   0.0% |
   Communicate from 2D:                       0.417     0.417   0.0% |
   Communicate to 1D:                         0.452     0.452   0.0% |
   Communicate to 2D:                         1.399     1.399   0.1% |
   FFT 1D:                                    0.892     0.892   0.1% |
   FFT 2D:                                    2.609     2.609   0.2% |
  XC 3D grid:                                29.053    29.053   1.9% ||
  vbar:                                       0.205     0.205   0.0% |
P tci:                                        6.803     6.803   0.4% |
Redistribute:                                 0.002     0.002   0.0% |
SCF-cycle:                                 1168.634     0.383   0.0% |
 Density:                                   267.156     0.004   0.0% |
  Atomic density matrices:                    0.541     0.541   0.0% |
  Mix:                                       21.369    21.369   1.4% ||
  Multipole moments:                          0.067     0.067   0.0% |
  Normalize:                                  0.067     0.067   0.0% |
  Pseudo density:                           245.108     0.327   0.0% |
   Calculate density matrix:                  1.275     1.275   0.1% |
   Construct density:                       243.497   243.497  16.0% |-----|
   Symmetrize density:                        0.009     0.009   0.0% |
 Hamiltonian:                               455.173     0.777   0.1% |
  Atomic:                                   147.221     0.349   0.0% |
   XC Correction:                           146.872   146.872   9.6% |---|
  Calculate atomic Hamiltonians:              1.368     1.368   0.1% |
  Communicate:                                0.001     0.001   0.0% |
  Hartree integrate/restrict:                 5.336     5.336   0.3% |
  Poisson:                                   55.780     4.440   0.3% |
   Communicate from 1D:                       4.530     4.530   0.3% |
   Communicate from 2D:                       3.546     3.546   0.2% |
   Communicate to 1D:                         3.628     3.628   0.2% |
   Communicate to 2D:                        10.365    10.365   0.7% |
   FFT 1D:                                    7.478     7.478   0.5% |
   FFT 2D:                                   21.794    21.794   1.4% ||
  XC 3D grid:                               242.063   242.063  15.9% |-----|
  vbar:                                       2.628     2.628   0.2% |
 LCAO eigensolver:                          445.922     0.164   0.0% |
  Calculate projections:                      1.952     1.952   0.1% |
  DenseAtomicCorrection:                      9.335     9.335   0.6% |
  Distribute overlap matrix:                  0.006     0.006   0.0% |
  Orbital Layouts:                           53.132    53.132   3.5% ||
  Potential matrix:                         381.333   381.333  25.0% |---------|
ST tci:                                       1.925     1.925   0.1% |
Set symmetry:                                 0.000     0.000   0.0% |
TCI: Evaluate splines:                        0.321     0.321   0.0% |
mktci:                                        0.224     0.224   0.0% |
Other:                                       12.949    12.949   0.8% |
--------------------------------------------------------------------
Total:                                               1525.680 100.0%

Memory usage: 1.89 GiB
Date: Mon Dec 15 14:32:45 2025
