49
Lattice="12.5 0.0 0.0 -6.250000000000001 10.825317547305481 0.0 0.0 0.0 40.0" Properties=species:S:1:pos:R:3:spacegroup_kinds:I:1:magmoms:R:1:forces:R:3 spacegroup="P 1" unit_cell=conventional occupancy="_JSON {\"0\": {\"C\": 1.0}, \"1\": {\"B\": 1.0}, \"2\": {\"N\": 1.0}, \"3\": {\"B\": 1.0}, \"4\": {\"N\": 1.0}, \"5\": {\"B\": 1.0}, \"6\": {\"N\": 1.0}, \"7\": {\"B\": 1.0}, \"8\": {\"N\": 1.0}, \"9\": {\"B\": 1.0}, \"10\": {\"N\": 1.0}, \"11\": {\"B\": 1.0}, \"12\": {\"N\": 1.0}, \"13\": {\"B\": 1.0}, \"14\": {\"N\": 1.0}, \"15\": {\"B\": 1.0}, \"16\": {\"N\": 1.0}, \"17\": {\"B\": 1.0}, \"18\": {\"N\": 1.0}, \"19\": {\"B\": 1.0}, \"20\": {\"N\": 1.0}, \"21\": {\"B\": 1.0}, \"22\": {\"N\": 1.0}, \"23\": {\"B\": 1.0}, \"24\": {\"N\": 1.0}, \"25\": {\"B\": 1.0}, \"26\": {\"N\": 1.0}, \"27\": {\"B\": 1.0}, \"28\": {\"N\": 1.0}, \"29\": {\"B\": 1.0}, \"30\": {\"N\": 1.0}, \"31\": {\"B\": 1.0}, \"32\": {\"N\": 1.0}, \"33\": {\"B\": 1.0}, \"34\": {\"N\": 1.0}, \"35\": {\"B\": 1.0}, \"36\": {\"N\": 1.0}, \"37\": {\"B\": 1.0}, \"38\": {\"N\": 1.0}, \"39\": {\"B\": 1.0}, \"40\": {\"N\": 1.0}, \"41\": {\"B\": 1.0}, \"42\": {\"N\": 1.0}, \"43\": {\"B\": 1.0}, \"44\": {\"N\": 1.0}, \"45\": {\"B\": 1.0}, \"46\": {\"N\": 1.0}, \"47\": {\"B\": 1.0}, \"48\": {\"N\": 1.0}}" energy=-404.4940289895698 free_energy=-404.4956058026824 dipole="-24.047011483326365 1.9644634911566574 -3.2805338905949417e-10" magmom=8.562063768803572e-15 pbc="T T T"
C        0.00006517      -0.11667069      20.00000000        0      -0.00000000       0.00417037      -0.07177777       0.00000001
B       -0.94687691       2.25190906      20.00000000        1       0.00000000      -0.06118296       0.00819837      -0.00000000
N       -1.21972111       3.67708168      20.00000000        2       0.00000000       0.00348811      -0.04609619       0.00000001
B       -2.48499414       4.34080275      20.00000000        3      -0.00000000       0.01828303       0.04453862       0.00000000
N       -2.49594271       5.78566734      20.00000000        4       0.00000000       0.01794853       0.01990533       0.00000000
B       -3.75038844       6.46971674      20.00000000        5       0.00000000      -0.01193874       0.00413222       0.00000000
N       -3.75525282       7.90911007      20.00000000        6       0.00000000      -0.01885677      -0.00999492       0.00000000
B       -5.01699016       8.56816126      20.00000000        7      -0.00000000      -0.00305804       0.02134621      -0.00000000
N       -5.07204382      10.00528973      20.00000000        8       0.00000000      -0.08619030       0.04065721      -0.00000000
B        2.39273308       0.01592210      20.00000000        9      -0.00000000       0.01991211       0.05372807      -0.00000000
N        2.28912732       1.46438698      20.00000000       10      -0.00000000      -0.08275891       0.01774993      -0.00000000
B        0.94601841       2.25228133      20.00000000       11      -0.00000000       0.07583956      -0.00117337      -0.00000000
N        1.21841655       3.67750004      20.00000000       12       0.00000000      -0.00147598      -0.04428932       0.00000001
B       -0.00054985       4.43969852      20.00000000       13      -0.00000000       0.01065429      -0.02559240       0.00000000
N        0.00074475       5.86728578      20.00000000       14      -0.00000000       0.00326130      -0.01027527      -0.00000000
B       -1.26498406       6.55059480      20.00000000       15      -0.00000000       0.01875618       0.01809240       0.00000000
N       -1.26626502       7.99509255      20.00000000       16      -0.00000000      -0.00893053       0.00009877       0.00000000
B       -2.53321062       8.68834653      20.00000000       17       0.00000000      -0.02312589       0.00173290       0.00000000
N       -2.57217736      10.13795368      20.00000000       18       0.00000000       0.02946428       0.01157447       0.00000000
B        4.96194479       0.01501827      20.00000000       19      -0.00000000       0.03799591      -0.02180060      -0.00000000
N        4.94297889       1.44994294      20.00000000       20      -0.00000000      -0.04161708       0.00693303       0.00000000
B        3.62765502       2.14392671      20.00000000       21       0.00000000       0.00280070       0.00707630      -0.00000000
N        3.71289346       3.58587001      20.00000000       22       0.00000000      -0.07439042      -0.01203315       0.00000000
B        2.48340281       4.34321188      20.00000000       23       0.00000000      -0.00739395       0.04959173       0.00000000
N        2.49583632       5.78910592      20.00000000       24      -0.00000000      -0.00364239       0.01599073       0.00000000
B        1.26551454       6.55233056      20.00000000       25      -0.00000000      -0.01238847       0.01579212      -0.00000000
N        1.26698701       7.99646259      20.00000000       26      -0.00000000       0.02109980      -0.00477457       0.00000000
B        0.00031230       8.70460289      20.00000000       27      -0.00000000       0.00404777       0.02888236       0.00000000
N        0.00011289      10.14515915      20.00000000       28       0.00000000      -0.00386172       0.03555038       0.00000000
B        7.53682408       0.01538310      20.00000000       29       0.00000000      -0.03656864      -0.01991620       0.00000000
N        7.55407676       1.44975574      20.00000000       30       0.00000000       0.01597574       0.00944752       0.00000000
B        6.24920409       2.14153389      20.00000000       31       0.00000000      -0.00259446      -0.04254554       0.00000000
N        6.25027138       3.57990512      20.00000000       32      -0.00000000      -0.00512446      -0.02680410      -0.00000000
B        4.98410605       4.28248851      20.00000000       33       0.00000000      -0.04309722      -0.04379972       0.00000000
N        4.99092582       5.72480641      20.00000000       34      -0.00000000      -0.00271547      -0.04128835       0.00000000
B        3.75177266       6.47191088      20.00000000       35      -0.00000000       0.02016664       0.00648735       0.00000000
N        3.75669964       7.91191141      20.00000000       36       0.00000000       0.00832464      -0.01731028       0.00000000
B        2.53376081       8.68945025      20.00000000       37       0.00000000       0.03008314       0.00523236       0.00000000
N        2.56942948      10.13852369      20.00000000       38       0.00000000      -0.02532078       0.01089863      -0.00000000
B       10.10699512       0.01441203      20.00000000       39       0.00000000      -0.00928436       0.05467318      -0.00000000
N       10.21005538       1.46346358      20.00000000       40      -0.00000000       0.07194849      -0.00370876      -0.00000000
B        8.87109358       2.14212377      20.00000000       41       0.00000000      -0.01018104       0.01222467      -0.00000000
N        8.78455808       3.58365363      20.00000000       42       0.00000000       0.07139139      -0.00695636       0.00000000
B        7.51601224       4.28147063      20.00000000       43       0.00000000       0.04525431      -0.03904395       0.00000000
N        7.51082179       5.72329589      20.00000000       44      -0.00000000       0.00485840      -0.04659123       0.00000000
B        6.25142345       6.41279293      20.00000000       45       0.00000000       0.00537572       0.01463018       0.00000000
N        6.25191992       7.84683733      20.00000000       46       0.00000000       0.00441181      -0.00425404      -0.00000000
B        5.02001256       8.56725849      20.00000000       47      -0.00000000       0.01493032       0.01874502      -0.00000000
N        5.07297879      10.00312188      20.00000000       48       0.00000000       0.07079246       0.06016392      -0.00000000
